<?xml version="1.0"?>
<VTKFile type="UnstructuredGrid"  version="0.1"  >
<UnstructuredGrid>
<Piece  NumberOfPoints="12123" NumberOfCells="23692">
<Points>
<DataArray  type="Float64"  NumberOfComponents="3"  format="ascii">0 0 0  0 0.41 0  2.2 0 0  2.2 0.41 0  0.2 0.15 0  0.2 0.25 0  0 0.4000000000000008 0  0 0.3900000000000259 0  0 0.3800000000000606 0  0 0.3700000000000953 0  0 0.3600000000001082 0  0 0.3500000000001241 0  0 0.3400000000001558 0  0 0.3300000000001905 0  0 0.3200000000002133 0  0 0.3100000000002381 0  0 0.3000000000002728 0  0 0.2900000000003075 0  0 0.2800000000003204 0  0 0.2700000000003551 0  0 0.2600000000003897 0  0 0.2500000000004243 0  0 0.2400000000004419 0  0 0.2300000000004503 0  0 0.2200000000004849 0  0 0.2100000000005195 0  0 0.2000000000005203 0  0 0.1900000000004874 0  0 0.1800000000004544 0  0 0.1700000000004476 0  0 0.1600000000004316 0  0 0.1500000000003986 0  0 0.1400000000003795 0  0 0.1300000000003759 0  0 0.1200000000003428 0  0 0.1100000000003098 0  0 0.1000000000002768 0  0 0.09000000000024383 0  0 0.08000000000021068 0  0 0.07000000000020096 0  0 0.0600000000001879 0  0 0.05000000000015475 0  0 0.04000000000012166 0  0 0.03000000000008857 0  0 0.02000000000005536 0  0 0.01000000000002221 0  0.009999999999981288 0 0  0.01999999999996251 0 0  0.02999999999994353 0 0  0.0399999999999241 0 0  0.04999999999990434 0 0  0.05999999999988457 0 0  0.06999999999986481 0 0  0.07999999999984503 0 0  0.08999999999982462 0 0  0.09999999999980327 0 0  0.1099999999997819 0 0  0.1199999999997606 0 0  0.1299999999997423 0 0  0.1399999999997245 0 0  0.1499999999997079 0 0  0.1599999999996929 0 0  0.1699999999996795 0 0  0.179999999999666 0 0  0.1899999999996523 0 0  0.1999999999996356 0 0  0.209999999999619 0 0  0.2199999999996025 0 0  0.2299999999995879 0 0  0.2399999999995744 0 0  0.249999999999561 0 0  0.2599999999995468 0 0  0.2699999999995302 0 0  0.2799999999995105 0 0  0.2899999999994876 0 0  0.2999999999994596 0 0  0.3099999999994304 0 0  0.3199999999994012 0 0  0.3299999999993699 0 0  0.3399999999993343 0 0  0.3499999999992988 0 0  0.3599999999992632 0 0  0.3699999999992334 0 0  0.3799999999992042 0 0  0.3899999999991749 0 0  0.3999999999991457 0 0  0.4099999999991165 0 0  0.4199999999990872 0 0  0.429999999999058 0 0  0.4399999999990288 0 0  0.4499999999989995 0 0  0.4599999999989703 0 0  0.4699999999989373 0 0  0.4799999999989018 0 0  0.4899999999988663 0 0  0.4999999999988318 0 0  0.5099999999988025 0 0  0.5199999999987733 0 0  0.529999999998744 0 0  0.5399999999987057 0 0  0.5499999999986639 0 0  0.559999999998622 0 0  0.5699999999985838 0 0  0.5799999999985546 0 0  0.5899999999985253 0 0  0.5999999999984962 0 0  0.6099999999984668 0 0  0.6199999999984376 0 0  0.6299999999984084 0 0  0.6399999999983792 0 0  0.6499999999983499 0 0  0.6599999999983207 0 0  0.6699999999982915 0 0  0.6799999999982622 0 0  0.6899999999982329 0 0  0.6999999999982038 0 0  0.7099999999981744 0 0  0.7199999999981452 0 0  0.7299999999981162 0 0  0.7399999999980867 0 0  0.7499999999980577 0 0  0.7599999999980284 0 0  0.769999999997999 0 0  0.7799999999979699 0 0  0.7899999999979407 0 0  0.7999999999979114 0 0  0.8099999999978793 0 0  0.8199999999978375 0 0  0.8299999999977956 0 0  0.8399999999977538 0 0  0.8499999999977218 0 0  0.8599999999976925 0 0  0.8699999999976633 0 0  0.8799999999976341 0 0  0.8899999999976047 0 0  0.8999999999975756 0 0  0.9099999999975463 0 0  0.9199999999975172 0 0  0.9299999999974878 0 0  0.9399999999974586 0 0  0.9499999999974295 0 0  0.9599999999974002 0 0  0.969999999997371 0 0  0.9799999999973418 0 0  0.9899999999973124 0 0  0.9999999999972872 0 0  1.009999999997271 0 0  1.019999999997246 0 0  1.029999999997217 0 0  1.039999999997188 0 0  1.049999999997163 0 0  1.059999999997159 0 0  1.069999999997144 0 0  1.079999999997114 0 0  1.089999999997085 0 0  1.099999999997056 0 0  1.109999999997077 0 0  1.119999999997098 0 0  1.12999999999712 0 0  1.139999999997141 0 0  1.149999999997162 0 0  1.159999999997205 0 0  1.169999999997248 0 0  1.179999999997269 0 0  1.18999999999729 0 0  1.199999999997312 0 0  1.209999999997333 0 0  1.219999999997354 0 0  1.229999999997375 0 0  1.239999999997403 0 0  1.249999999997449 0 0  1.259999999997482 0 0  1.269999999997503 0 0  1.279999999997525 0 0  1.289999999997546 0 0  1.299999999997567 0 0  1.309999999997589 0 0  1.31999999999761 0 0  1.329999999997648 0 0  1.339999999997694 0 0  1.349999999997717 0 0  1.359999999997738 0 0  1.369999999997759 0 0  1.379999999997781 0 0  1.389999999997802 0 0  1.399999999997823 0 0  1.409999999997846 0 0  1.419999999997893 0 0  1.42999999999793 0 0  1.439999999997952 0 0  1.449999999997973 0 0  1.459999999997994 0 0  1.469999999998015 0 0  1.479999999998037 0 0  1.489999999998058 0 0  1.499999999998091 0 0  1.509999999998137 0 0  1.519999999998165 0 0  1.529999999998186 0 0  1.539999999998207 0 0  1.549999999998229 0 0  1.55999999999825 0 0  1.569999999998271 0 0  1.579999999998293 0 0  1.589999999998336 0 0  1.599999999998378 0 0  1.6099999999984 0 0  1.619999999998421 0 0  1.629999999998442 0 0  1.639999999998464 0 0  1.649999999998485 0 0  1.659999999998506 0 0  1.669999999998528 0 0  1.679999999998549 0 0  1.68999999999857 0 0  1.699999999998592 0 0  1.709999999998634 0 0  1.719999999998677 0 0  1.729999999998699 0 0  1.73999999999872 0 0  1.749999999998741 0 0  1.759999999998762 0 0  1.769999999998784 0 0  1.779999999998805 0 0  1.789999999998833 0 0  1.799999999998879 0 0  1.809999999998912 0 0  1.819999999998933 0 0  1.829999999998954 0 0  1.839999999998976 0 0  1.849999999998997 0 0  1.859999999999018 0 0  1.86999999999904 0 0  1.879999999999078 0 0  1.889999999999124 0 0  1.899999999999147 0 0  1.909999999999168 0 0  1.919999999999189 0 0  1.929999999999211 0 0  1.939999999999232 0 0  1.949999999999253 0 0  1.959999999999276 0 0  1.969999999999323 0 0  1.97999999999936 0 0  1.989999999999381 0 0  1.999999999999387 0 0  2.009999999999383 0 0  2.019999999999379 0 0  2.029999999999375 0 0  2.039999999999371 0 0  2.049999999999391 0 0  2.059999999999437 0 0  2.069999999999521 0 0  2.079999999999617 0 0  2.089999999999663 0 0  2.099999999999694 0 0  2.109999999999689 0 0  2.119999999999686 0 0  2.129999999999681 0 0  2.139999999999722 0 0  2.149999999999776 0 0  2.159999999999873 0 0  2.169999999999948 0 0  2.179999999999994 0 0  2.190000000000004 0 0  2.2 0.009999999999981952 0  2.2 0.01999999999996097 0  2.2 0.02999999999994221 0  2.2 0.03999999999992531 0  2.2 0.04999999999991126 0  2.2 0.05999999999988534 0  2.2 0.06999999999985251 0  2.2 0.07999999999982024 0  2.2 0.08999999999980195 0  2.2 0.0999999999997695 0  2.2 0.1099999999997346 0  2.2 0.1199999999997104 0  2.2 0.1299999999996865 0  2.2 0.1399999999996516 0  2.2 0.1499999999996167 0  2.2 0.1599999999995818 0  2.2 0.169999999999564 0  2.2 0.1799999999995553 0  2.2 0.1899999999995205 0  2.2 0.1999999999994856 0  2.2 0.2099999999994845 0  2.2 0.2199999999995173 0  2.2 0.2299999999995501 0  2.2 0.2399999999995566 0  2.2 0.2499999999995723 0  2.2 0.259999999999605 0  2.2 0.2699999999996239 0  2.2 0.2799999999996273 0  2.2 0.2899999999996601 0  2.2 0.2999999999996928 0  2.2 0.3099999999997256 0  2.2 0.3199999999997584 0  2.2 0.3299999999997912 0  2.2 0.3399999999998008 0  2.2 0.3499999999998136 0  2.2 0.3599999999998464 0  2.2 0.3699999999998793 0  2.2 0.3799999999999122 0  2.2 0.3899999999999451 0  2.2 0.3999999999999779 0  2.190000000000005 0.41 0  2.180000000000009 0.41 0  2.170000000000015 0.41 0  2.160000000000019 0.41 0  2.150000000000024 0.41 0  2.140000000000029 0.41 0  2.130000000000033 0.41 0  2.120000000000038 0.41 0  2.110000000000043 0.41 0  2.100000000000048 0.41 0  2.090000000000087 0.41 0  2.080000000000142 0.41 0  2.070000000000197 0.41 0  2.06000000000024 0.41 0  2.050000000000245 0.41 0  2.040000000000249 0.41 0  2.030000000000254 0.41 0  2.020000000000259 0.41 0  2.010000000000264 0.41 0  2.000000000000268 0.41 0  1.990000000000273 0.41 0  1.980000000000278 0.41 0  1.970000000000283 0.41 0  1.960000000000287 0.41 0  1.950000000000292 0.41 0  1.940000000000302 0.41 0  1.930000000000332 0.41 0  1.920000000000362 0.41 0  1.910000000000392 0.41 0  1.900000000000422 0.41 0  1.890000000000452 0.41 0  1.880000000000482 0.41 0  1.870000000000503 0.41 0  1.860000000000508 0.41 0  1.850000000000529 0.41 0  1.840000000000559 0.41 0  1.830000000000588 0.41 0  1.820000000000618 0.41 0  1.810000000000648 0.41 0  1.800000000000678 0.41 0  1.790000000000708 0.41 0  1.780000000000719 0.41 0  1.770000000000725 0.41 0  1.760000000000755 0.41 0  1.750000000000785 0.41 0  1.740000000000815 0.41 0  1.730000000000845 0.41 0  1.720000000000875 0.41 0  1.710000000000905 0.41 0  1.700000000000931 0.41 0  1.690000000000936 0.41 0  1.680000000000951 0.41 0  1.670000000000981 0.41 0  1.660000000001048 0.41 0  1.650000000001128 0.41 0  1.640000000001208 0.41 0  1.630000000001275 0.41 0  1.620000000001305 0.41 0  1.610000000001321 0.41 0  1.600000000001325 0.41 0  1.590000000001351 0.41 0  1.580000000001384 0.41 0  1.57000000000144 0.41 0  1.560000000001495 0.41 0  1.55000000000155 0.41 0  1.540000000001588 0.41 0  1.530000000001618 0.41 0  1.520000000001623 0.41 0  1.510000000001634 0.41 0  1.500000000001664 0.41 0  1.490000000001708 0.41 0  1.480000000001763 0.41 0  1.470000000001818 0.41 0  1.460000000001871 0.41 0  1.450000000001901 0.41 0  1.440000000001922 0.41 0  1.430000000001926 0.41 0  1.420000000001947 0.41 0  1.410000000001977 0.41 0  1.400000000002031 0.41 0  1.390000000002086 0.41 0  1.380000000002141 0.41 0  1.370000000002184 0.41 0  1.360000000002214 0.41 0  1.350000000002224 0.41 0  1.340000000002231 0.41 0  1.33000000000226 0.41 0  1.320000000002299 0.41 0  1.310000000002354 0.41 0  1.300000000002394 0.41 0  1.290000000002424 0.41 0  1.280000000002431 0.41 0  1.270000000002435 0.41 0  1.26000000000244 0.41 0  1.250000000002457 0.41 0  1.240000000002487 0.41 0  1.230000000002536 0.41 0  1.22000000000259 0.41 0  1.21000000000262 0.41 0  1.200
[...]
<PointData  Scalars="p"> 
<DataArray  type="Float64"  Name="p"  format="ascii">4.1374047055075719e-01  3.5231343525327330e-01  0.0000000000000000e+00  0.0000000000000000e+00  -8.6065256994351913e-01  -9.6330515674260497e-01  3.5218972807807042e-01  3.5258438609664061e-01  3.5430126476073115e-01  3.5807418223146514e-01  3.6452621010272263e-01  3.7396032758378001e-01  3.8695423268777279e-01  4.0357595354043890e-01  4.2399309095053850e-01  4.4802313315414133e-01  4.7530995297553508e-01  5.0528601627277403e-01  5.3715667213542972e-01  5.6994874298149734e-01  6.0253040405835545e-01  6.3320191502665357e-01  6.6129878455914803e-01  6.8504951434021677e-01  7.0344918228563036e-01  7.1556430284037809e-01  7.1990962910337075e-01  7.1796855776454971e-01  7.0878263889761106e-01  6.9307050491888356e-01  6.7211896001083937e-01  6.4742718847199454e-01  6.1986908305356847e-01  5.9072905229041639e-01  5.6184612160322678e-01  5.3386848675182830e-01  5.0794914744125541e-01  4.8474659849189028e-01  4.6483815556470925e-01  4.4837371095348216e-01  4.3549515451008736e-01  4.2599902782966775e-01  4.1957485347091095e-01  4.1578581261745212e-01  4.1403988293582072e-01  4.1362042425072926e-01  4.1319681935996672e-01  4.1251947839188402e-01  4.1140830459240013e-01  4.0972753280646396e-01  4.0734431453864567e-01  4.0408633062442878e-01  3.9980200820433476e-01  3.9436107824449773e-01  3.8743321504870287e-01  3.7908995550230623e-01  3.6857055529251753e-01  3.5646620249149435e-01  3.4184430744564392e-01  3.2503951925226948e-01  3.0593326616382083e-01  2.8437210193721674e-01  2.6084958418691367e-01  2.3518467321224884e-01  2.0816410808121061e-01  1.7962560760433111e-01  1.5057030614528694e-01  1.2110887514907379e-01  9.1687369011013320e-02  6.2903758382502964e-02  3.5206586264814321e-02  8.3201558554609461e-03  -1.6652254166538524e-02  -4.0707892638681874e-02  -6.2283602136080585e-02  -8.2285195958495941e-02  -1.0061296155026284e-01  -1.1707439314504392e-01  -1.3183810297040513e-01  -1.4517502164967411e-01  -1.5653813252097470e-01  -1.6676482005514190e-01  -1.7564649076341496e-01  -1.8307787496975741e-01  -1.8983150361870868e-01  -1.9523591173740110e-01  -1.9994586614284501e-01  -2.0380168248283839e-01  -2.0701325934209208e-01  -2.0964820759393177e-01  -2.1170178399118608e-01  -2.1342207490576096e-01  -2.1470169188766378e-01  -2.1579997151842836e-01  -2.1640763083303755e-01  -2.1688937222201504e-01  -2.1678577642052740e-01  -2.1645603309720449e-01  -2.1556562773491547e-01  -2.1388253684682010e-01  -2.1135241849552791e-01  -2.0807843691378439e-01  -2.0351754410076145e-01  -1.9776624004852048e-01  -1.9053810223524933e-01  -1.8205108688752983e-01  -1.7199808419870782e-01  -1.6069130397021672e-01  -1.4823163399136988e-01  -1.3462234891927377e-01  -1.2024193176654600e-01  -1.0526096420003622e-01  -9.0071286125698521e-02  -7.4645875800065056e-02  -5.9646116442079573e-02  -4.5233029070064941e-02  -3.1368439933087279e-02  -1.8601863734962722e-02  -6.9347620483212980e-03  3.4033635345645098e-03  1.2163674296391862e-02  1.9560977540112622e-02  2.5297200848563538e-02  2.9498964228487648e-02  3.1699069683569552e-02  3.2732707189860551e-02  3.2148507422425865e-02  2.9853350632658277e-02  2.6501404296671263e-02  2.1778533974916178e-02  1.6157686133538629e-02  9.7779389464429430e-03  2.6311649173236216e-03  -4.8309804285862545e-03  -1.2569012719774991e-02  -2.0189571764657025e-02  -2.7533700122405962e-02  -3.4574558204703058e-02  -4.0958989319826694e-02  -4.6493911581324432e-02  -5.1095501819949068e-02  -5.4842077964250467e-02  -5.7541427079986919e-02  -5.9201348974424743e-02  -5.9763773366206148e-02  -5.9415784408195796e-02  -5.8115972319710676e-02  -5.6089411054691306e-02  -5.3426959490125409e-02  -5.0110845726110367e-02  -4.6467357920762772e-02  -4.2481360123122675e-02  -3.8444951497968755e-02  -3.4340327818662954e-02  -3.0337909098314974e-02  -2.6665006702590976e-02  -2.3184203788868440e-02  -2.0161729450558656e-02  -1.7540381165192007e-02  -1.5472226823689518e-02  -1.3789187756651776e-02  -1.2727899821261749e-02  -1.2098209188567480e-02  -1.1928558135573478e-02  -1.2243986689545735e-02  -1.2871076272484839e-02  -1.3864546612821946e-02  -1.5092935692237812e-02  -1.6514191239787798e-02  -1.8056771412802691e-02  -1.9576336753870015e-02  -2.1183636463620051e-02  -2.2577450938501824e-02  -2.3884994503203257e-02  -2.4942395400789467e-02  -2.5793807733544727e-02  -2.6254657785811736e-02  -2.6432185519379956e-02  -2.6292553508564975e-02  -2.5791236063102099e-02  -2.4849746653058398e-02  -2.3669101823158841e-02  -2.2052128423603816e-02  -2.0157306296342280e-02  -1.7966174508808944e-02  -1.5493348385284900e-02  -1.2777796329280080e-02  -9.9218044630860671e-03  -6.8812142772414374e-03  -3.7151655286803693e-03  -4.8877708043371126e-04  2.8248210574305793e-03  6.1143366796209409e-03  9.3707737035313276e-03  1.2600402205598485e-02  1.5783248212584828e-02  1.8804492557591285e-02  2.1738030716707626e-02  2.4534132552795025e-02  2.7170444754729576e-02  2.9648635202859933e-02  3.1941401747767072e-02  3.4129835902407639e-02  3.6073834010337397e-02  3.7850103181937725e-02  3.9491344033925006e-02  4.0880376355587639e-02  4.2179599802979889e-02  4.3281506215687257e-02  4.4235604098724901e-02  4.5022050528373526e-02  4.5694725660522892e-02  4.6240196782772060e-02  4.6630931850391050e-02  4.6947471145581052e-02  4.7121536128495789e-02  4.7218383782955536e-02  4.7229016783680133e-02  4.7166964918226181e-02  4.7030310685252028e-02  4.6814545248905354e-02  4.6559537339169704e-02  4.6244162129993716e-02  4.5896636167191890e-02  4.5493279784005615e-02  4.5067497215082672e-02  4.4590000465213123e-02  4.4109029951203409e-02  4.3588991809910424e-02  4.3049656025128863e-02  4.2478938973048774e-02  4.1898770826306921e-02  4.1298117214201971e-02  4.0682714484004061e-02  4.0047154084806899e-02  3.9398223827932406e-02  3.8739068194922531e-02  3.8054223839473399e-02  3.7365276618369442e-02  3.6663402425924529e-02  3.5947405552128900e-02  3.5223201425410453e-02  3.4486054742563360e-02  3.3735387137637941e-02  3.2984547586440711e-02  3.2224464037289263e-02  3.1451284072573443e-02  3.0682276595284812e-02  2.9908929613559513e-02  2.9130428440051058e-02  2.8360191217565996e-02  2.7583449554313130e-02  2.6823302979570925e-02  2.6062202468870296e-02  2.5313045999878773e-02  2.4581654887974324e-02  2.3858259425858914e-02  2.3162235524062907e-02  2.2477707806714452e-02  2.1806269577906514e-02  2.1163487157977199e-02  2.0512814110584539e-02  1.9865177717336466e-02  1.9206544132809207e-02  1.7304149360944553e-02  0.0000000000000000e+00  0.0000000000000000e+00  0.0000000000000000e+00  0.0000000000000000e+00  0.0000000000000000e+00  0.0000000000000000e+00  0.0000000000000000e+00  0.0000000000000000e+00  0.0000000000000000e+00  0.0000000000000000e+00  0.0000000000000000e+00  0.0000000000000000e+00  0.0000000000000000e+00  0.0000000000000000e+00  0.0000000000000000e+00  0.0000000000000000e+00  0.0000000000000000e+00  0.0000000000000000e+00  0.0000000000000000e+00  0.0000000000000000e+00  0.0000000000000000e+00  0.0000000000000000e+00  0.0000000000000000e+00  0.0000000000000000e+00  0.0000000000000000e+00  0.0000000000000000e+00  0.0000000000000000e+00  0.0000000000000000e+00  0.0000000000000000e+00  0.0000000000000000e+00  0.0000000000000000e+00  0.0000000000000000e+00  0.0000000000000000e+00  0.0000000000000000e+00  0.0000000000000000e+00  0.0000000000000000e+00  0.0000000000000000e+00  0.0000000000000000e+00  0.0000000000000000e+00  0.0000000000000000e+00  1.6866323874819834e-02  1.7556737842042681e-02  1.8284024676810749e-02  1.9224586234327708e-02  2.0026530191597058e-02  2.0861505667261582e-02  2.1702694133846411e-02  2.2561911702095695e-02  2.3440497411334422e-02  2.4340825837176911e-02  2.5256902506196669e-02  2.6194878312667310e-02  2.7142841986553885e-02  2.8114042269767315e-02  2.9090356525271959e-02  3.0085577232922930e-02  3.1081523294430202e-02  3.2091446811054400e-02  3.3102075079329267e-02  3.4119952802303941e-02  3.5135462829953168e-02  3.6148930337687360e-02  3.7158890756927361e-02  3.8158934350751107e-02  3.9146752540689528e-02  4.0129297808863526e-02  4.1080032306898655e-02  4.2015377466386242e-02  4.2930256294448133e-02  4.3805847963297610e-02  4.4640688834987625e-02  4.5458237471952601e-02  4.6204424779109660e-02  4.6917569622076237e-02  4.7564646317839833e-02  4.8166345071029237e-02  4.8674944861386772e-02  4.9135869649954610e-02  4.9491187367904178e-02  4.9778561822324395e-02  4.9980458690657169e-02  5.0052318220152471e-02  5.0047957742485202e-02  4.9928220637785466e-02  4.9734879250602451e-02  4.9349350253158578e-02  4.8900793287683007e-02  4.8286541966682112e-02  4.7581297346730091e-02  4.6736453190473884e-02  4.5753311690267674e-02  4.4647769439871421e-02  4.3420518474958057e-02  4.2054948490384172e-02  4.0613903136418529e-02  3.9009169801349844e-02  3.7302154508861207e-02  3.5509028083987107e-02  3.3611549917703709e-02  3.1622051300773849e-02  2.9554208950526257e-02  2.7452178127879204e-02  2.5254369911221711e-02  2.2985910083974850e-02  2.0709858381547860e-02  1.8412636296697909e-02  1.6074261362276999e-02  1.3725662641307215e-02  1.1334297493761353e-02  8.9837647750035214e-03  6.6097748225635682e-03  4.2325158554599000e-03  1.8535161790285757e-03  -4.8849326419593466e-04  -2.8707089206363831e-03  -5.2107446026054324e-03  -7.5501692764806082e-03  -9.9006881540804337e-03  -1.2224880116562222e-02  -1.4552320649981623e-02  -1.6859941643724053e-02  -1.9153836660378440e-02  -2.1417066661921919e-02  -2.3650373360387736e-02  -2.5831409983543489e-02  -2.7962959008687015e-02  -3.0012403665571195e-02  -3.1953437957029471e-02  -3.3796403612743067e-02  -3.5499723365650555e-02  -3.7059247932682032e-02  -3.8386232428766064e-02  -3.9540217192574570e-02  -4.0470085418118043e-02  -4.1069409183984856e-02  -4.1463053193700861e-02  -4.1500630386215112e-02  -4.1293447571330223e-02  -4.0621473378493304e-02  -3.9742681294132109e-02  -3.8437189428139049e-02  -3.6850103521417252e-02  -3.4891018558172018e-02  -3.2617645029827190e-02  -3.0096464104309578e-02  -2.7236014925551749e-02  -2.4139154696744575e-02  -2.0964961473672425e-02  -1.7590640379574161e-02  -1.4160549792487946e-02  -1.0656622469585656e-02  -7.2197449811344690e-03  -3.9322612642307278e-03  -8.3476295935049245e-04  2.0354484056074318e-03  4.5475036002056227e-03  6.5827076268507242e-03  8.1826336301349962e-03  9.2388559312384117e-03  9.5622575158239905e-03  9.2466835517451811e-03  8.1533807737000259e-03  6.1088037509772798e-03  3.5327894497419487e-03  -3.0881293993398996e-04  -4.7824642776991659e-03  -1.0222988365500703e-02  -1.6352958269329945e-02  -2.3456693140936076e-02  -3.0891230494451128e-02  -3.9186117664413961e-02  -4.7714577259883678e-02  -5.6459058209623235e-02  -6.5295991108637291e-02  -7.4025454009936473e-02  -8.2147479411081470e-02  -8.9884077738158069e-02  -9.6629409084007148e-02  -1.0240150012924842e-01  -1.0690812004113777e-01  -1.0997778812833441e-01  -1.1171519184828850e-01  -1.1149699909904547e-01  -1.1014926567223179e-01  -1.0701650221060595e-01  -1.0227253873932218e-01  -9.6762378443898747e-02  -9.0041118828613473e-02  -8.2416948194955222e-02  -7.4741360447331914e-02  -6.6679276240963523e-02  -5.8910198882678545e-02  -5.1454241974558321e-02  -4.5043493702012542e-02  -3.9388862039304702e-02  -3.5022870173134504e-02  -3.1836986051326913e-02  -3.0314860859584656e-02  -3.0043789482630097e-02  -3.1185584476197344e-02  -3.3997032342013511e-02  -3.8171869921701240e-02  -4.3906442050378622e-02  -5.0747535706730899e-02  -5.8940612707436162e-02  -6.8365256727198231e-02  -7.8408668305887719e-02  -8.9546701889568689e-02  -1.0107637788554574e-01  -1.1317036713289937e-01  -1.2539660533859209e-01  -1.3728546643176881e-01  -1.4917010483443879e-01  -1.6018952900281810e-01  -1.7069296731187422e-01  -1.8002223770913667e-01  -1.8835023013203087e-01  -1.9498581111754526e-01  -2.0009918818358585e-01  -2.0394789860424700e-01  -2.0525826477124948e-01  -2.0513931725238579e-01  -2.0263323872879493e-01  -1.9824832569260117e-01  -1.9159028623574018e-01  -1.8265238765671007e-01  -1.7161929555465383e-01  -1.5814505394525000e-01  -1.4263960621821203e-01  -1.2500519097528584e-01  -1.0541103790012106e-01  -8.3967965759045360e-02  -6.0613467914514531e-02  -3.6175146961684175e-02  -9.8262580516439487e-03  1.6862447999057284e-02  4.5014285765020826e-02  7.2823667850427196e-02  1.0103665364705036e-01  1.2850060006531996e-01  1.5545809039263717e-01  1.8091402576255580e-01  2.0498015744132397e-01  2.2752782144423642e-01  2.4744353354686965e-01  2.6595169417753345e-01  2.8216197572937612e-01  2.9598708413515062e-01  3.0794968490460356e-01  3.1799119586793156e-01  3.2645870780425290e-01  3.3318692333534961e-01  3.3871349729840566e-01  3.4276247309751362e-01  3.4608553966768962e-01  3.4838306247780859e-01  3.5003590126264955e-01  3.5111919689808435e-01  3.5177028759128864e-01  -1.0748598609145046e+00  -1.0122848846422876e+00  -7.0557577475642863e-01  -1.6742377231432592e-01  5.8236518225244494e-01  1.2380112935762757e+00  1.7261693043531763e+00  1.9077069875229551e+00  1.7286140872446341e+00  1.2487013489012737e+00  6.1497061090670635e-01  -9.6848112938219141e-02  -6.4459707592910254e-01  -9.0428568866488990e-01  -9.8064419634281863e-01  -7.0824297253595025e-01  -5.8646232455647862e-01  -5.0827715806548712e-01  -4.6419242982963949e-01  -4.4316633848229026e-01  -4.3154000950184729e-01  -4.2882871098974668e-01  -4.3849022570102930e-01  -4.6154660525927127e-01  -4.8745932873355008e-01  -5.0589818389605234e-01  -5.2530020654373033e-01  -5.6556923686369909e-01  -6.5097976131163748e-01  -7.7888455125398071e-01  -4.3044963722513324e-01  3.5964586298947603e-02  -1.1381733090536960e-02  4.5155837086637153e-02  3.6615591827601865e-02  -1.9233957699086479e-02  -2.3245139715270917e-02  4.9218862161350081e-02  2.4085138664054127e-02  1.5283365642895560e-02  4.3525612717441813e-02  4.3331875821057526e-02  2.2205368553525326e-02  2.8480952218110017e-02  -3.5936156465835159e-02  -2.1667943811625533e-02  -5.2513183725585033e-01  -2.7621118740577929e-02  -7.1744202343507438e-02  -1.0886769454263175e-03  -4.7963547786218520e-03  -3.4509956632037442e-01  -2.5645612962761639e-02  -9.5921650901212678e-03  -2.8288200008844144e-01  4.6262655172439889e-02  -5.8766299417480775e-03  4.0056860418433531e-02  3.2557260226740645e-02  -8.4426377420538518e-03  4.3017950108204292e-02  4.3245700398321409e-02  -1.7339917416428535e-01  -3.7935087395617857e-02  -7.9518704812558572e-02  4.0546026023691356e-01  3.3664938349405663e-02  4.7173528016603894e-01  -8.9106270601294960e-03  1.4703451399669399e-02  -3.5713617219412469e-01  4.4938011834051307e-02  2.1282512915738638e-02  -6.8096618315473686e-02  -1.0658797103428476e-01  -2.4823997956213389e-01  -2.0133450541342032e-01  1.5262581448683607e-02  -3.4964808986179409e-02  5.4622643607142151e-03  2.0900713369285989e-02  4.6356666927849087e-02  -2.6764837676965660e-02  4.0702379334062906e-02  -4.9370853047169572e-01  -1.8754268018646086e-01  -1.3303639586053071e-02  -1.0687838843455507e-02  6.0033087441354249e-03  3.7253928074960162e-02  1.0370212509446759e-01  -2.8104375176388315e-02  2.9874396732665402e-02  -2.3237469608950397e-02  2.5002364380834419e-02  4.0994048046283676e-02  8.3729470836776065e-01  1.8459515854214248e-01  3.7526077521103013e-02  1.8302314708541802e-02  4.8323534096439261e-02  2.8393501543569732e-02  1.3671757465079868e-02  4.4159255790034838e-02  8.1250997761443955e-01  1.1423713781755950e-02  -7.8371826534777492e-02  -6.5234520617624657e-04  4.6429376096843639e-02  -1.9634724279252710e-02  3.3587632420358671e-02  -4.4615717163791264e-02  -7.8883477304428559e-02  -1.1529731455819739e-01  -5.0679289364845358e-02  -2.5062131467138038e-01  -5.3193936556974949e-02  -4.5124067504800247e-02  3.1213510377485027e-03  3.4990964217347431e-02  -2.1746292797332936e-02  -2.8065032024372619e-02  -1.9382919108320990e-02  2.8936274637379661e-02  -1.8704208302165157e-02  -1.8358170173839661e-02  -5.3382045373903342e-01  -1.7317190401939062e-02  -2.4105545991276051e-01  -4.0620288104020623e-02  -1.9700181122147033e-02  1.3142358088033917e-02  -4.7667544547125407e-01  -1.3949364946541313e-02  -5.4136290444173896e-01  3.9750477814728354e-02  -2.3706523337407920e-01  -2.4569257933863423e-01  -3.9359091058202966e-01  3.1489561335086756e-02  4.2039374253922939e-03  -4.3098207066190115e-02  4.4608750533636714e-02  3.6092091454479336e-02  3.3721104092979781e-03  -4.2965878556113217e-02  -2.0645098111203056e-01  -1.2945172358426512e-02  3.8125432750320438e-02  4.1369106977645891e-02  -5.8035895574290164e-01  -2.6982065378375383e-02  -6.6904762699506057e-02  -6.3156197176155739e-04  3.1113443715444798e-02  4.0723571426757338e-02  4.0301156221498442e-02  -2.6037640495884411e-02  5.7226936599615745e-02  -6.6675881530269793e-02  2.4779751124302682e-02  4.9230143155206366e-02  -1.6381882811863899e-02  1.0699105676287410e-02  3.6053550929930295e-01  -1.7298063963344540e-01  1.1434337492790828e-02  3.1501290567530670e-02  2.3197536341395101e-02  4.2299921309079658e-01  8.2194299883988579e-03  3.0219219138377176e-02  -2.7892302806583058e-02  -4.5750540465306867e-03  -9.1712939695525700e-02  -9.1665321681568164e-03  -1.6267974280598604e-02  4.2639019126908241e-02  4.1699744459459641e-02  -5.3858402581254666e-03  -3.7812271063976610e-02  2.7910888691131713e-01  3.0114843490950872e-02  1.6121770201302812e-02  4.1716822281432683e-02  4.4300321904299958e-02  3.9127662907286198e-02  -3.7196873633297031e-02  -2.4956637719481284e-01  2.0370609096143608e-02  5.4588171844920708e-01  -3.6863180655524869e-01  2.1527778745333414e-02  2.4185100916134947e-02  -9.8852648882398909e-03  2.4315810816401526e-01  2.8642524876550564e-02  3.8811412743534161e-02  3.4779132870242863e-01  -1.2290354512713986e-02  -3.5806938741445637e-02  -1.5016254039354984e-01  -1.1423267613851770e-01  3.2616047252904068e-02  4.6742519582671040e-02  -1.6144596553846684e-02  7.3659039923826097e-01  5.6978945912091794e-01  4.1458099527618454e-02  2.1383384827713181e-02  -1.2665489590076507e-02  -4.0450206760670032e-01  -4.4988808974901695e-01  -6.3378440650506353e-04  3.5061545020329608e-03  -2.1617008270449600e-02  -1.1264813351956580e-02  3.4121974388453227e-02  -2.5942937670100824e-01  2.5617337473301305e-02  4.3593029973529665e-02  3.9062928724234225e-02  -2.7396881023051073e-02  4.4119912431048625e-02  4.9529523230627211e-02  1.2388125203011710e-02  5.4681539036806719e-03  -2.4368979405977059e-01  -6.5258479604334563e-02  -1.2697833493783894e-01  2.5185387477581971e-02  -2.2650356651831119e-01  -7.3450612236816648e-02  4.5653238165719338e-03  3.3526829669977436e-02  4.6712424859982719e-02  -3.1471623854996952e-02  1.2285238586310525e+00  -1.9881250424804444e-03  -3.3676732665047102e-02  -1.5918902679631641e-02  -1.4051417978595224e-01  7.9500664450432612e-01  4.6290628270643307e-02  -4.5810283716766396e-02  -4.3341501668825860e-02  -3.8130023336473495e-01  3.9026075422744763e-02  2.3684104146322563e-02  3.9155803424686289e-02  -6.2256533836880998e-03  7.8168281139682294e-01  -9.2819613742928016e-03  -4.0358197069912172e-01  1.2738802019786508e-02  -1.9099974849945515e-02  4.6027973162086025e-02  1.3824147920014868e-02  6.7221635034362265e-03  -4.9968900388318950e-02  -2.0993490797439548e-02  1.7663929779138519e-02  4.7269868177544840e-02  2.3615192257459264e-01  -1.2867177183212342e-02  5.7378337989269354e-03  4.4942496986979649e-02  -2.0698477480323198e-02  7.7142540122835876e-02  -4.8261715029894375e-02  1.2700318656759241e-02  -2.8247842984151517e-01  4.0984834792286699e-02  4.1977419325797280e-02  1.2005359698563719e-02  3.2373918989638859e-02  1.5966423257935847e-02  -2.9117036880366935e-02  -8.1572571923726023e-02  -4.6734773214881238e-02  -2.6714953549719343e-02  -4.9616944592512585e-01  -2.5295750492949069e-02  -3.8437481003699203e-01  -4.2047646371739175e-02  2.8363082469409568e-02  2.2345552057582870e-02  -4.3614588210380036e-02  9.6560814901958617e-03  -3.7712613611042534e-01  3.125633813921