<?xml version="1.0"?>
<VTKFile type="UnstructuredGrid"  version="0.1"  >
<UnstructuredGrid>
<Piece  NumberOfPoints="12123" NumberOfCells="23692">
<Points>
<DataArray  type="Float64"  NumberOfComponents="3"  format="ascii">0 0 0  0 0.41 0  2.2 0 0  2.2 0.41 0  0.2 0.15 0  0.2 0.25 0  0 0.4000000000000008 0  0 0.3900000000000259 0  0 0.3800000000000606 0  0 0.3700000000000953 0  0 0.3600000000001082 0  0 0.3500000000001241 0  0 0.3400000000001558 0  0 0.3300000000001905 0  0 0.3200000000002133 0  0 0.3100000000002381 0  0 0.3000000000002728 0  0 0.2900000000003075 0  0 0.2800000000003204 0  0 0.2700000000003551 0  0 0.2600000000003897 0  0 0.2500000000004243 0  0 0.2400000000004419 0  0 0.2300000000004503 0  0 0.2200000000004849 0  0 0.2100000000005195 0  0 0.2000000000005203 0  0 0.1900000000004874 0  0 0.1800000000004544 0  0 0.1700000000004476 0  0 0.1600000000004316 0  0 0.1500000000003986 0  0 0.1400000000003795 0  0 0.1300000000003759 0  0 0.1200000000003428 0  0 0.1100000000003098 0  0 0.1000000000002768 0  0 0.09000000000024383 0  0 0.08000000000021068 0  0 0.07000000000020096 0  0 0.0600000000001879 0  0 0.05000000000015475 0  0 0.04000000000012166 0  0 0.03000000000008857 0  0 0.02000000000005536 0  0 0.01000000000002221 0  0.009999999999981288 0 0  0.01999999999996251 0 0  0.02999999999994353 0 0  0.0399999999999241 0 0  0.04999999999990434 0 0  0.05999999999988457 0 0  0.06999999999986481 0 0  0.07999999999984503 0 0  0.08999999999982462 0 0  0.09999999999980327 0 0  0.1099999999997819 0 0  0.1199999999997606 0 0  0.1299999999997423 0 0  0.1399999999997245 0 0  0.1499999999997079 0 0  0.1599999999996929 0 0  0.1699999999996795 0 0  0.179999999999666 0 0  0.1899999999996523 0 0  0.1999999999996356 0 0  0.209999999999619 0 0  0.2199999999996025 0 0  0.2299999999995879 0 0  0.2399999999995744 0 0  0.249999999999561 0 0  0.2599999999995468 0 0  0.2699999999995302 0 0  0.2799999999995105 0 0  0.2899999999994876 0 0  0.2999999999994596 0 0  0.3099999999994304 0 0  0.3199999999994012 0 0  0.3299999999993699 0 0  0.3399999999993343 0 0  0.3499999999992988 0 0  0.3599999999992632 0 0  0.3699999999992334 0 0  0.3799999999992042 0 0  0.3899999999991749 0 0  0.3999999999991457 0 0  0.4099999999991165 0 0  0.4199999999990872 0 0  0.429999999999058 0 0  0.4399999999990288 0 0  0.4499999999989995 0 0  0.4599999999989703 0 0  0.4699999999989373 0 0  0.4799999999989018 0 0  0.4899999999988663 0 0  0.4999999999988318 0 0  0.5099999999988025 0 0  0.5199999999987733 0 0  0.529999999998744 0 0  0.5399999999987057 0 0  0.5499999999986639 0 0  0.559999999998622 0 0  0.5699999999985838 0 0  0.5799999999985546 0 0  0.5899999999985253 0 0  0.5999999999984962 0 0  0.6099999999984668 0 0  0.6199999999984376 0 0  0.6299999999984084 0 0  0.6399999999983792 0 0  0.6499999999983499 0 0  0.6599999999983207 0 0  0.6699999999982915 0 0  0.6799999999982622 0 0  0.6899999999982329 0 0  0.6999999999982038 0 0  0.7099999999981744 0 0  0.7199999999981452 0 0  0.7299999999981162 0 0  0.7399999999980867 0 0  0.7499999999980577 0 0  0.7599999999980284 0 0  0.769999999997999 0 0  0.7799999999979699 0 0  0.7899999999979407 0 0  0.7999999999979114 0 0  0.8099999999978793 0 0  0.8199999999978375 0 0  0.8299999999977956 0 0  0.8399999999977538 0 0  0.8499999999977218 0 0  0.8599999999976925 0 0  0.8699999999976633 0 0  0.8799999999976341 0 0  0.8899999999976047 0 0  0.8999999999975756 0 0  0.9099999999975463 0 0  0.9199999999975172 0 0  0.9299999999974878 0 0  0.9399999999974586 0 0  0.9499999999974295 0 0  0.9599999999974002 0 0  0.969999999997371 0 0  0.9799999999973418 0 0  0.9899999999973124 0 0  0.9999999999972872 0 0  1.009999999997271 0 0  1.019999999997246 0 0  1.029999999997217 0 0  1.039999999997188 0 0  1.049999999997163 0 0  1.059999999997159 0 0  1.069999999997144 0 0  1.079999999997114 0 0  1.089999999997085 0 0  1.099999999997056 0 0  1.109999999997077 0 0  1.119999999997098 0 0  1.12999999999712 0 0  1.139999999997141 0 0  1.149999999997162 0 0  1.159999999997205 0 0  1.169999999997248 0 0  1.179999999997269 0 0  1.18999999999729 0 0  1.199999999997312 0 0  1.209999999997333 0 0  1.219999999997354 0 0  1.229999999997375 0 0  1.239999999997403 0 0  1.249999999997449 0 0  1.259999999997482 0 0  1.269999999997503 0 0  1.279999999997525 0 0  1.289999999997546 0 0  1.299999999997567 0 0  1.309999999997589 0 0  1.31999999999761 0 0  1.329999999997648 0 0  1.339999999997694 0 0  1.349999999997717 0 0  1.359999999997738 0 0  1.369999999997759 0 0  1.379999999997781 0 0  1.389999999997802 0 0  1.399999999997823 0 0  1.409999999997846 0 0  1.419999999997893 0 0  1.42999999999793 0 0  1.439999999997952 0 0  1.449999999997973 0 0  1.459999999997994 0 0  1.469999999998015 0 0  1.479999999998037 0 0  1.489999999998058 0 0  1.499999999998091 0 0  1.509999999998137 0 0  1.519999999998165 0 0  1.529999999998186 0 0  1.539999999998207 0 0  1.549999999998229 0 0  1.55999999999825 0 0  1.569999999998271 0 0  1.579999999998293 0 0  1.589999999998336 0 0  1.599999999998378 0 0  1.6099999999984 0 0  1.619999999998421 0 0  1.629999999998442 0 0  1.639999999998464 0 0  1.649999999998485 0 0  1.659999999998506 0 0  1.669999999998528 0 0  1.679999999998549 0 0  1.68999999999857 0 0  1.699999999998592 0 0  1.709999999998634 0 0  1.719999999998677 0 0  1.729999999998699 0 0  1.73999999999872 0 0  1.749999999998741 0 0  1.759999999998762 0 0  1.769999999998784 0 0  1.779999999998805 0 0  1.789999999998833 0 0  1.799999999998879 0 0  1.809999999998912 0 0  1.819999999998933 0 0  1.829999999998954 0 0  1.839999999998976 0 0  1.849999999998997 0 0  1.859999999999018 0 0  1.86999999999904 0 0  1.879999999999078 0 0  1.889999999999124 0 0  1.899999999999147 0 0  1.909999999999168 0 0  1.919999999999189 0 0  1.929999999999211 0 0  1.939999999999232 0 0  1.949999999999253 0 0  1.959999999999276 0 0  1.969999999999323 0 0  1.97999999999936 0 0  1.989999999999381 0 0  1.999999999999387 0 0  2.009999999999383 0 0  2.019999999999379 0 0  2.029999999999375 0 0  2.039999999999371 0 0  2.049999999999391 0 0  2.059999999999437 0 0  2.069999999999521 0 0  2.079999999999617 0 0  2.089999999999663 0 0  2.099999999999694 0 0  2.109999999999689 0 0  2.119999999999686 0 0  2.129999999999681 0 0  2.139999999999722 0 0  2.149999999999776 0 0  2.159999999999873 0 0  2.169999999999948 0 0  2.179999999999994 0 0  2.190000000000004 0 0  2.2 0.009999999999981952 0  2.2 0.01999999999996097 0  2.2 0.02999999999994221 0  2.2 0.03999999999992531 0  2.2 0.04999999999991126 0  2.2 0.05999999999988534 0  2.2 0.06999999999985251 0  2.2 0.07999999999982024 0  2.2 0.08999999999980195 0  2.2 0.0999999999997695 0  2.2 0.1099999999997346 0  2.2 0.1199999999997104 0  2.2 0.1299999999996865 0  2.2 0.1399999999996516 0  2.2 0.1499999999996167 0  2.2 0.1599999999995818 0  2.2 0.169999999999564 0  2.2 0.1799999999995553 0  2.2 0.1899999999995205 0  2.2 0.1999999999994856 0  2.2 0.2099999999994845 0  2.2 0.2199999999995173 0  2.2 0.2299999999995501 0  2.2 0.2399999999995566 0  2.2 0.2499999999995723 0  2.2 0.259999999999605 0  2.2 0.2699999999996239 0  2.2 0.2799999999996273 0  2.2 0.2899999999996601 0  2.2 0.2999999999996928 0  2.2 0.3099999999997256 0  2.2 0.3199999999997584 0  2.2 0.3299999999997912 0  2.2 0.3399999999998008 0  2.2 0.3499999999998136 0  2.2 0.3599999999998464 0  2.2 0.3699999999998793 0  2.2 0.3799999999999122 0  2.2 0.3899999999999451 0  2.2 0.3999999999999779 0  2.190000000000005 0.41 0  2.180000000000009 0.41 0  2.170000000000015 0.41 0  2.160000000000019 0.41 0  2.150000000000024 0.41 0  2.140000000000029 0.41 0  2.130000000000033 0.41 0  2.120000000000038 0.41 0  2.110000000000043 0.41 0  2.100000000000048 0.41 0  2.090000000000087 0.41 0  2.080000000000142 0.41 0  2.070000000000197 0.41 0  2.06000000000024 0.41 0  2.050000000000245 0.41 0  2.040000000000249 0.41 0  2.030000000000254 0.41 0  2.020000000000259 0.41 0  2.010000000000264 0.41 0  2.000000000000268 0.41 0  1.990000000000273 0.41 0  1.980000000000278 0.41 0  1.970000000000283 0.41 0  1.960000000000287 0.41 0  1.950000000000292 0.41 0  1.940000000000302 0.41 0  1.930000000000332 0.41 0  1.920000000000362 0.41 0  1.910000000000392 0.41 0  1.900000000000422 0.41 0  1.890000000000452 0.41 0  1.880000000000482 0.41 0  1.870000000000503 0.41 0  1.860000000000508 0.41 0  1.850000000000529 0.41 0  1.840000000000559 0.41 0  1.830000000000588 0.41 0  1.820000000000618 0.41 0  1.810000000000648 0.41 0  1.800000000000678 0.41 0  1.790000000000708 0.41 0  1.780000000000719 0.41 0  1.770000000000725 0.41 0  1.760000000000755 0.41 0  1.750000000000785 0.41 0  1.740000000000815 0.41 0  1.730000000000845 0.41 0  1.720000000000875 0.41 0  1.710000000000905 0.41 0  1.700000000000931 0.41 0  1.690000000000936 0.41 0  1.680000000000951 0.41 0  1.670000000000981 0.41 0  1.660000000001048 0.41 0  1.650000000001128 0.41 0  1.640000000001208 0.41 0  1.630000000001275 0.41 0  1.620000000001305 0.41 0  1.610000000001321 0.41 0  1.600000000001325 0.41 0  1.590000000001351 0.41 0  1.580000000001384 0.41 0  1.57000000000144 0.41 0  1.560000000001495 0.41 0  1.55000000000155 0.41 0  1.540000000001588 0.41 0  1.530000000001618 0.41 0  1.520000000001623 0.41 0  1.510000000001634 0.41 0  1.500000000001664 0.41 0  1.490000000001708 0.41 0  1.480000000001763 0.41 0  1.470000000001818 0.41 0  1.460000000001871 0.41 0  1.450000000001901 0.41 0  1.440000000001922 0.41 0  1.430000000001926 0.41 0  1.420000000001947 0.41 0  1.410000000001977 0.41 0  1.400000000002031 0.41 0  1.390000000002086 0.41 0  1.380000000002141 0.41 0  1.370000000002184 0.41 0  1.360000000002214 0.41 0  1.350000000002224 0.41 0  1.340000000002231 0.41 0  1.33000000000226 0.41 0  1.320000000002299 0.41 0  1.310000000002354 0.41 0  1.300000000002394 0.41 0  1.290000000002424 0.41 0  1.280000000002431 0.41 0  1.270000000002435 0.41 0  1.26000000000244 0.41 0  1.250000000002457 0.41 0  1.240000000002487 0.41 0  1.230000000002536 0.41 0  1.22000000000259 0.41 0  1.21000000000262 0.41 0  1.200
[...]
<PointData  Scalars="p"> 
<DataArray  type="Float64"  Name="p"  format="ascii">4.0657119886039839e-01  3.6019201528705008e-01  0.0000000000000000e+00  0.0000000000000000e+00  -8.7694563480448751e-01  -9.3457799003237696e-01  3.6007033540186006e-01  3.6046169676012157e-01  3.6216027298675207e-01  3.6589323000752705e-01  3.7227824347578686e-01  3.8161549530318722e-01  3.9447572174084217e-01  4.1092547815034780e-01  4.3112522390210317e-01  4.5488992529883460e-01  4.8185992637677466e-01  5.1146493291230577e-01  5.4290345818537866e-01  5.7520978329517847e-01  6.0724557086128161e-01  6.3731285797822801e-01  6.6475759500996878e-01  6.8781047170603615e-01  7.0547535036851183e-01  7.1682866728168737e-01  7.2039674067327131e-01  7.1767651031547119e-01  7.0771940850810333e-01  6.9125763413640751e-01  6.6958832974176929e-01  6.4421792255402033e-01  6.1602857877953976e-01  5.8631198013517449e-01  5.5690718494500069e-01  5.2846821459353843e-01  5.0214525431376655e-01  4.7859686891771469e-01  4.5840072621895905e-01  4.4170178116713144e-01  4.2864045321231753e-01  4.1900868801231861e-01  4.1249097194829204e-01  4.0864567186596923e-01  4.0687337507819604e-01  4.0644856956019371e-01  4.0603141939552911e-01  4.0535672785585669e-01  4.0423954354072517e-01  4.0253812250385418e-01  4.0011443895705928e-01  3.9678969294561306e-01  3.9240718212888870e-01  3.8683062387260320e-01  3.7972341113981334e-01  3.7115893428627073e-01  3.6035705984456068e-01  3.4792758640871280e-01  3.3292205959831700e-01  3.1567459359758920e-01  2.9607966966134169e-01  2.7396745776456971e-01  2.4985581844502311e-01  2.2354476244491761e-01  1.9585247413257492e-01  1.6658717921620447e-01  1.3679114631830147e-01  1.0655288782751036e-01  7.6337982281548630e-02  4.6755915643692900e-02  1.8277780348503671e-02  -9.4226986446972194e-03  -3.5132939558596643e-02  -5.9925364453439996e-02  -8.2100427672637352e-02  -1.0265401694755197e-01  -1.2142982852593176e-01  -1.3815617526653118e-01  -1.5304128975855208e-01  -1.6629088939193148e-01  -1.7733981010207417e-01  -1.8704283527891680e-01  -1.9514794635351485e-01  -2.0150212573740878e-01  -2.0702226793496270e-01  -2.1086163813450834e-01  -2.1378639582032541e-01  -2.1570991068491024e-01  -2.1670403828303456e-01  -2.1703626789457159e-01  -2.1657695857902590e-01  -2.1575314424419717e-01  -2.1439406138497030e-01  -2.1283778395167918e-01  -2.1091688077774148e-01  -2.0892166690786851e-01  -2.0666152914719296e-01  -2.0440852825354294e-01  -2.0200321090521217e-01  -1.9937764956990767e-01  -1.9661752338141875e-01  -1.9376060951419447e-01  -1.9043905780120027e-01  -1.8686083031386982e-01  -1.8275546083706659e-01  -1.7819080224876011e-01  -1.7298992707266833e-01  -1.6724751403385077e-01  -1.6084299005636804e-01  -1.5382742582878456e-01  -1.4623950050793277e-01  -1.3815065261542678e-01  -1.2967150399322649e-01  -1.2081614619442145e-01  -1.1186633241623387e-01  -1.0288781543131681e-01  -9.3922539981978997e-02  -8.5258176675438738e-02  -7.6929221976836076e-02  -6.9106533011901769e-02  -6.1929378365342874e-02  -5.5367156712709982e-02  -4.9561631990198689e-02  -4.4560129719900345e-02  -4.0573827258138712e-02  -3.7201863034983601e-02  -3.4758939847510925e-02  -3.3292787829968772e-02  -3.2444583119545400e-02  -3.2500388596682368e-02  -3.3120635051104387e-02  -3.4400415162425008e-02  -3.6239387896866045e-02  -3.8501347026967038e-02  -4.1139147265374966e-02  -4.3980408327818042e-02  -4.6994892974700463e-02  -5.0088219725949276e-02  -5.3096730705894907e-02  -5.5911154674047073e-02  -5.8470791459301938e-02  -6.0760237630947393e-02  -6.2591752750629115e-02  -6.3973187185682373e-02  -6.4732434573307768e-02  -6.4979193037821861e-02  -6.4545468848836454e-02  -6.3597022367832184e-02  -6.2015935317820861e-02  -5.9721385910169116e-02  -5.6936885797459279e-02  -5.3549066625299076e-02  -4.9675246737132729e-02  -4.5329403505981636e-02  -4.0611765485797958e-02  -3.5582430895132175e-02  -3.0241952557736630e-02  -2.4722798335233848e-02  -1.9120272201993856e-02  -1.3361619078151574e-02  -7.6198687003806928e-03  -1.9639600518234993e-03  3.6698044039801857e-03  9.1283469267946921e-03  1.4421390682014130e-02  1.9540865519330167e-02  2.4402771283395620e-02  2.9044789594624171e-02  3.3438631185309861e-02  3.7597593827610458e-02  4.1394877883881014e-02  4.5076718537099852e-02  4.8384134547000017e-02  5.1497391357497375e-02  5.4356218343673587e-02  5.7017838073867615e-02  5.9376305914444864e-02  6.1587785254537265e-02  6.3642430745050826e-02  6.5452959165898897e-02  6.7103455985786181e-02  6.8643984835616234e-02  6.9947398646894934e-02  7.1189728910368691e-02  7.2264750756901378e-02  7.3201477879622820e-02  7.4094910864634309e-02  7.4812565778321891e-02  7.5440979356712359e-02  7.5981671141680016e-02  7.6414675193929638e-02  7.6776849510507630e-02  7.7051993433586166e-02  7.7208486889754055e-02  7.7317564251552770e-02  7.7358185902082849e-02  7.7291940612285781e-02  7.7171285311067386e-02  7.6980624496887515e-02  7.6719538249239286e-02  7.6394901312200725e-02  7.6004857532991382e-02  7.5584941772442793e-02  7.5075698528195220e-02  7.4524616336737640e-02  7.3937743806314293e-02  7.3272212960837454e-02  7.2598704804909819e-02  7.1866860659764803e-02  7.1102530858816654e-02  7.0295581672491225e-02  6.9474611740569611e-02  6.8620081278502332e-02  6.7733839668383949e-02  6.6838826201921969e-02  6.5906838464008494e-02  6.4972437911546832e-02  6.4020319725357697e-02  6.3062216162724699e-02  6.2088349006376449e-02  6.1100895061698496e-02  6.0118517319447007e-02  5.9125464829995138e-02  5.8137649298138208e-02  5.7136877980237380e-02  5.6144490566177166e-02  5.5138814801207213e-02  5.4153136000056543e-02  5.3156130280384926e-02  5.2164148594443641e-02  5.1166850052755980e-02  5.0180365776288476e-02  4.9194869675299839e-02  4.8213454992673384e-02  4.7230489451274851e-02  4.6255408133772054e-02  4.5284537921780776e-02  4.4308954724996082e-02  4.3345357447335038e-02  4.2385497396390852e-02  4.1430115731512319e-02  4.0480944242644812e-02  3.9536579311300571e-02  3.8595177497945998e-02  3.7670036764145168e-02  3.6750583388615352e-02  3.5833974930372402e-02  3.4937765923690363e-02  3.4053458014510589e-02  3.3176563220037460e-02  3.2326542647469321e-02  3.1481587201167789e-02  3.0671244485000623e-02  2.9871241435795205e-02  2.9099659872480668e-02  2.8361739739436512e-02  2.7644050141561832e-02  2.6972536129537376e-02  2.6323189556809162e-02  2.5699402856509367e-02  2.5122293591870855e-02  2.4541432868355643e-02  2.3972247699008326e-02  2.3394278018008197e-02  2.1274773184855014e-02  0.0000000000000000e+00  0.0000000000000000e+00  0.0000000000000000e+00  0.0000000000000000e+00  0.0000000000000000e+00  0.0000000000000000e+00  0.0000000000000000e+00  0.0000000000000000e+00  0.0000000000000000e+00  0.0000000000000000e+00  0.0000000000000000e+00  0.0000000000000000e+00  0.0000000000000000e+00  0.0000000000000000e+00  0.0000000000000000e+00  0.0000000000000000e+00  0.0000000000000000e+00  0.0000000000000000e+00  0.0000000000000000e+00  0.0000000000000000e+00  0.0000000000000000e+00  0.0000000000000000e+00  0.0000000000000000e+00  0.0000000000000000e+00  0.0000000000000000e+00  0.0000000000000000e+00  0.0000000000000000e+00  0.0000000000000000e+00  0.0000000000000000e+00  0.0000000000000000e+00  0.0000000000000000e+00  0.0000000000000000e+00  0.0000000000000000e+00  0.0000000000000000e+00  0.0000000000000000e+00  0.0000000000000000e+00  0.0000000000000000e+00  0.0000000000000000e+00  0.0000000000000000e+00  0.0000000000000000e+00  1.9749617942624087e-02  2.0258555777701272e-02  2.0816566953441897e-02  2.1624932363523627e-02  2.2285974681587342e-02  2.2998482126964058e-02  2.3727338513167495e-02  2.4485802795221671e-02  2.5274884878171623e-02  2.6095798722856504e-02  2.6939641328899380e-02  2.7815632206376669e-02  2.8704500151181353e-02  2.9630430186263282e-02  3.0561530756039720e-02  3.1525252111534112e-02  3.2490270650656183e-02  3.3482370490909671e-02  3.4480746281469396e-02  3.5499569745182112e-02  3.6524628340740301e-02  3.7562543131514171e-02  3.8608491901959634e-02  3.9666102721864493e-02  4.0724230310770979e-02  4.1804602690333384e-02  4.2877392710657075e-02  4.3957171291669608e-02  4.5054594945262677e-02  4.6148124846579083e-02  4.7237351994354568e-02  4.8351222141158168e-02  4.9448719544397779e-02  5.0558656130368057e-02  5.1667705491134065e-02  5.2786455498666257e-02  5.3896949267413646e-02  5.5015421974247705e-02  5.6130013730327617e-02  5.7243518921741121e-02  5.8368582679987839e-02  5.9475362891216597e-02  6.0589278538739487e-02  6.1699595998380770e-02  6.2821065089912295e-02  6.3917940454418426e-02  6.5021260296561759e-02  6.6112946767563172e-02  6.7203159509094834e-02  6.8288820728079430e-02  6.9360204837457057e-02  7.0420186689080497e-02  7.1469605131481859e-02  7.2498717832992790e-02  7.3520097866479187e-02  7.4510152337132887e-02  7.5472593157555279e-02  7.6412440541932955e-02  7.7311066918991617e-02  7.8167949245553134e-02  7.8975279766933928e-02  7.9741102095072722e-02  8.0427170215209925e-02  8.1031106763150632e-02  8.1568141697698313e-02  8.2019750911232245e-02  8.2355198024777754e-02  8.2575671188197905e-02  8.2643015314390098e-02  8.2624736848574326e-02  8.2404948314074633e-02  8.2028722119572656e-02  8.1460591985643593e-02  8.0749028979592768e-02  7.9760953107858593e-02  7.8627513886638245e-02  7.7253541418204424e-02  7.5613476485260137e-02  7.3783748558099466e-02  7.1694254658759102e-02  6.9356902678445562e-02  6.6803785484610134e-02  6.3999219352788406e-02  6.0961501957774965e-02  5.7723654393064594e-02  5.4237348969078468e-02  5.0603560247866733e-02  4.6809930452739977e-02  4.2772063295331932e-02  3.8630145886960190e-02  3.4483578265877869e-02  3.0168349003737518e-02  2.5777977442072494e-02  2.1469750642578538e-02  1.7128433897265885e-02  1.2828816374811383e-02  8.6137523895211641e-03  4.5835728955351141e-03  6.3778497942822317e-04  -3.1333026217288135e-03  -6.6511339900596272e-03  -9.9453320100177517e-03  -1.2986970759423889e-02  -1.5736349542866637e-02  -1.8219926746904893e-02  -2.0395566615507378e-02  -2.2302742112751107e-02  -2.3964810004010025e-02  -2.5333722466004394e-02  -2.6475785729099293e-02  -2.7404961063685198e-02  -2.8185404524850168e-02  -2.8869695165628456e-02  -2.9460601826877559e-02  -3.0044375201326756e-02  -3.0655967341863780e-02  -3.1398953063423177e-02  -3.2247801446752301e-02  -3.3298749160982778e-02  -3.4625185442976457e-02  -3.6206911796223498e-02  -3.8115965467888938e-02  -4.0418450804721402e-02  -4.2945764021457902e-02  -4.5991269909436631e-02  -4.9278843450880322e-02  -5.2934692218309466e-02  -5.6816645114559979e-02  -6.1021303395143792e-02  -6.5271739759753769e-02  -6.9726480920561523e-02  -7.4142103903560450e-02  -7.8484180063768574e-02  -8.2631538018634931e-02  -8.6608005146423389e-02  -9.0038268188266338e-02  -9.3138118439643244e-02  -9.5652408253964802e-02  -9.7562634023641903e-02  -9.8849769726831002e-02  -9.9383608331734319e-02  -9.9369246274321879e-02  -9.8472064314736069e-02  -9.7159492276243861e-02  -9.5247126746384470e-02  -9.2722200992842285e-02  -9.0103838274707582e-02  -8.7251734740518547e-02  -8.4226449977722911e-02  -8.1522904861756881e-02  -7.8962378187536167e-02  -7.6890698345132860e-02  -7.5249939775118888e-02  -7.4447982271016261e-02  -7.4312024629309789e-02  -7.5056821841314611e-02  -7.6642579373144185e-02  -7.9234561234813775e-02  -8.2709507933265369e-02  -8.6983691559678347e-02  -9.2209096292843920e-02  -9.8239077952032017e-02  -1.0508799535104053e-01  -1.1249832658442857e-01  -1.2054000300465205e-01  -1.2914460439339040e-01  -1.3792904048026383e-01  -1.4707567282608994e-01  -1.5623029222966331e-01  -1.6542133125720940e-01  -1.7441163440818264e-01  -1.8287182679768998e-01  -1.9097389366603032e-01  -1.9822880831871700e-01  -2.0475446125612437e-01  -2.1020812172616346e-01  -2.1463044122463620e-01  -2.1758854245982479e-01  -2.1908298012239763e-01  -2.1943575037289562e-01  -2.1754601344445151e-01  -2.1436149980767347e-01  -2.0905424474890244e-01  -2.0206203541376477e-01  -1.9303087469705776e-01  -1.8198265068404459e-01  -1.6904242967897343e-01  -1.5390849851898408e-01  -1.3695173702767718e-01  -1.1807705512029344e-01  -9.7430689424340092e-02  -7.5130082200607934e-02  -5.1088764059000355e-02  -2.6124973962252523e-02  6.1114812885283319e-04  2.7558787594605647e-02  5.5855605291842331e-02  8.3719173425042676e-02  1.1188584190221389e-01  1.3924237761151398e-01  1.6602359436940553e-01  1.9127527500028410e-01  2.1508977557333123e-01  2.3737143004724076e-01  2.5702386855119791e-01  2.7525623605435062e-01  2.9121020471125392e-01  3.0480321247626818e-01  3.1655215740850384e-01  3.2641034517043749e-01  3.3471970061811773e-01  3.4132397540468101e-01  3.4675095851052901e-01  3.5073266830705180e-01  3.5400509248575807e-01  3.5627451651381298e-01  3.5791276521104731e-01  3.5899226233085629e-01  3.5964593401117584e-01  -1.0464179976437766e+00  -9.8549410442317509e-01  -6.8189992512247910e-01  -1.4718438237694650e-01  5.9768120464158414e-01  1.2490739079919089e+00  1.7320812065100386e+00  1.9083106471446809e+00  1.7239974886992915e+00  1.2396816242442394e+00  6.0247777901656152e-01  -1.1255510737690991e-01  -6.6198251318650736e-01  -9.2211815047247836e-01  -9.9827892529293871e-01  -7.2275323811052772e-01  -5.9932489482139950e-01  -5.1998850374651284e-01  -4.7587728280590008e-01  -4.5478087873763773e-01  -4.4009886099422174e-01  -4.3047225679195655e-01  -4.3137961871839098e-01  -4.4677323241701117e-01  -4.6725360360650581e-01  -4.8361728060956694e-01  -5.0314847725586975e-01  -5.4308954947841004e-01  -6.2668209973062849e-01  -7.5252586469970317e-01  -4.3506601554265234e-01  6.8147661120717365e-02  5.8473042113753239e-02  1.6283722949764164e-02  4.3703159328493481e-02  3.3112614198788546e-03  -3.3660827775551183e-02  5.0268318048563736e-02  2.7403718468836664e-02  7.4757836451849177e-02  5.7669255309729356e-02  5.8986483653835034e-02  7.2548356337172881e-02  3.0655714570194562e-02  2.8179687861619462e-02  4.2697979388011904e-02  -5.0312407312391250e-01  -9.5338402186895946e-02  -3.5182918361352650e-02  -4.0160190723188452e-02  -2.3363373741393380e-02  -3.9223560941118446e-01  -3.5748830356434100e-02  -3.0177457357865339e-02  -2.7800577704410134e-01  -7.7006779422178553e-03  7.0803512347589664e-02  4.8694666822247823e-02  7.4289385666471627e-02  7.1342023454956438e-02  4.7699069529242757e-02  6.8003700702870595e-02  -2.7062590186879248e-01  -1.0332323004896036e-02  -8.1231580201354125e-02  4.1358461902266985e-01  3.8803211472235671e-02  4.6477976301979873e-01  1.1312142029027019e-02  1.6023631527587977e-02  -3.4475710634232837e-01  6.6589726816587702e-02  2.2300183074555349e-02  -6.6320527103857080e-02  -1.2975504648815978e-01  -2.3152859961719680e-01  -2.2424304668479147e-01  -3.0939512555279665e-02  -5.5406270379368676e-02  6.9132249959554040e-02  2.3920728353939717e-02  -1.7841840850124750e-02  6.3984408690867633e-02  5.2732273627810321e-02  -4.8341675381368432e-01  -1.7777606699759924e-01  5.3713861592982241e-02  -2.1612312889731779e-02  -1.2353997608821108e-02  3.9158196539043955e-02  1.1514519983409588e-01  5.2675365215010754e-02  3.4009727693038713e-02  4.0503350419989190e-02  7.1697866265328605e-02  6.1996632955949760e-02  8.4139335070482490e-01  1.7371643350832333e-01  7.3366487201769540e-02  8.0528300496117797e-02  5.5527997147095998e-02  3.2225119263812010e-02  7.5902103307528834e-02  5.5324697460081458e-02  8.0973208889001813e-01  1.3146878860992783e-02  -1.6255876184203388e-02  -2.6655848151549949e-02  6.2854173888769210e-02  -2.6065063051024542e-02  7.0410270173803913e-02  1.0322599415784246e-02  -1.5064597300958629e-01  -9.4518486264689811e-02  -7.6911310353655227e-02  -2.7190796702949305e-01  -6.3269270217721010e-02  -1.0041711227415236e-01  8.0884527502830011e-02  3.9228684608419558e-02  5.0018494338870415e-02  2.0291530900913457e-02  4.0046295118283302e-02  3.0289712712973794e-02  -1.1992448987630791e-02  5.4526092180574685e-02  -5.3543404312033538e-01  2.1398141798877005e-02  -2.5982216791842733e-01  -2.0861421603523223e-01  -1.5682134151403456e-02  -2.3550728584046613e-02  -4.6815958428917032e-01  -2.1204666595729730e-02  -4.9833189956972390e-01  6.6079759649063249e-02  -2.3194079756052002e-01  -2.3412716463664227e-01  -4.2663848442275204e-01  -1.4307560593509370e-03  -2.8755550730017485e-02  -5.0489608662654097e-02  -5.7543430319336730e-03  4.2847586768374482e-02  7.0624362577285424e-02  -5.1501560086434771e-02  -1.9328620903313914e-01  -3.4921445306830496e-03  4.4587760358404768e-02  5.1279310290724217e-02  -5.0475525637806440e-01  -8.7685951698418210e-02  -7.1350565713765204e-02  -4.7970116376937010e-02  -4.8113728176205288e-02  6.5257175719727820e-02  7.2648165753554941e-02  -3.3322042472011044e-02  4.0629942630644234e-02  -1.0607565369769840e-01  9.7205492876979924e-03  6.2029286620800206e-02  7.2387090757420960e-02  -3.0369949092446710e-02  3.6831961182515749e-01  -1.9718256055797073e-01  1.1363314196045214e-02  7.1433230656292548e-02  2.5901349386156000e-02  4.1600165836212677e-01  7.1365993084828439e-02  3.4806811045136769e-02  5.7022689634527966e-02  -2.4304447182636340e-02  1.1637091470266960e-02  2.5759211559750381e-03  6.9520723540090631e-02  4.4884910235251846e-02  5.3215179993064389e-02  6.5229250914397269e-02  3.4830316618443324e-02  2.8814318190130728e-01  7.8003106041431070e-02  7.1271107765179295e-02  5.0173119444707683e-02  7.0529431609535120e-02  4.8216473744061641e-02  8.6000837050764691e-03  -2.3288194981086072e-01  2.2249023008542916e-02  5.5210577853917187e-01  -4.4090606941636118e-01  2.2924218397665105e-02  7.5210966120868764e-02  6.2513478454055513e-02  2.5467609364793176e-01  7.6056910247371809e-02  4.5269706196866648e-02  3.3929044432659311e-01  -2.3879882640544345e-02  -1.6713321157045276e-02  -1.9926132528878332e-01  -1.0221165989815141e-01  3.7211934399618035e-02  5.0565712031233265e-02  6.4656640131739801e-02  7.3018339765132090e-01  5.6455389149939905e-01  5.7361297612676033e-02  2.5244092984993659e-02  -9.8180329884419992e-03  -4.3926687691513583e-01  -3.9556286613206798e-01  7.5818548247323647e-02  4.1836593830988688e-03  3.3103136476876668e-02  2.0991412529253312e-02  3.5489122164517314e-02  -2.7456427597749944e-01  2.9302049812290464e-02  6.2906129986293233e-02  6.9949260655853038e-02  7.4360722439294603e-04  6.3164255006994380e-02  1.6467613072728465e-03  1.4169438829535072e-02  7.6627901256802411e-02  -3.8514315039791619e-01  -6.8349360877283452e-02  -1.4899726087305040e-01  2.6733960525274408e-02  -2.3505395193675141e-01  -3.4042893512019584e-02  -2.6203585184539260e-02  3.9176677437641326e-02  6.6646102383334752e-02  -4.4637969811505335e-02  1.2289559016690048e+00  6.5674981767208665e-02  -1.4131856462724180e-02  2.9834591733348209e-02  -1.3117677393639446e-01  7.9574140056096188e-01  6.8066117325861666e-02  -5.0183787888684092e-02  -4.7960118920485975e-02  -3.8834212975734761e-01  4.2623588795254123e-02  2.6880070648186424e-02  4.8543870759275798e-02  7.7931786653050866e-02  7.8979481390491213e-01  -1.7579345629971849e-02  -3.7972677589989134e-01  -3.1762376913828126e-02  6.0093142658196035e-02  5.9025052547917282e-02  2.8480299223348091e-02  -3.4252909985116535e-02  -5.9267987331900703e-02  -7.0900127103524099e-02  1.9923896413512034e-02  5.9345674313176687e-02  2.2602625259632314e-01  -1.0847735671032956e-01  -1.3421407667452492e-02  5.2580653503124325e-02  -3.0949494547767846e-02  5.5059401810518917e-02  -6.7184376078384900e-02  7.1804051661504276e-02  -3.1762598897440703e-01  -3.2120676598506176e-02  5.6651392552803506e-02  8.2411643002251303e-02  3.4130585573517107e-02  1.6109393609534627e-02  -5.9725866252099663e-02  -6.2772885802200057e-02  -1.6238598767452922e-01  5.4160471159711281e-02  -4.7494489008125329e-01  6.8124346410503661e-02  -3.5788360727562124e-01  -2.6700526471234421e-03  3.2315024419687637e-02  -1.8646725500131571e-02  8.6626111351353150e-03  -2.0609128724060295e-02  -3.5064444266580014e-01  7.0107989498708043e-02  -1.9237018890497500e-02  -4.56305547695347