<?xml version="1.0"?>
<VTKFile type="UnstructuredGrid"  version="0.1"  >
<UnstructuredGrid>
<Piece  NumberOfPoints="12123" NumberOfCells="23692">
<Points>
<DataArray  type="Float64"  NumberOfComponents="3"  format="ascii">0 0 0  0 0.41 0  2.2 0 0  2.2 0.41 0  0.2 0.15 0  0.2 0.25 0  0 0.4000000000000008 0  0 0.3900000000000259 0  0 0.3800000000000606 0  0 0.3700000000000953 0  0 0.3600000000001082 0  0 0.3500000000001241 0  0 0.3400000000001558 0  0 0.3300000000001905 0  0 0.3200000000002133 0  0 0.3100000000002381 0  0 0.3000000000002728 0  0 0.2900000000003075 0  0 0.2800000000003204 0  0 0.2700000000003551 0  0 0.2600000000003897 0  0 0.2500000000004243 0  0 0.2400000000004419 0  0 0.2300000000004503 0  0 0.2200000000004849 0  0 0.2100000000005195 0  0 0.2000000000005203 0  0 0.1900000000004874 0  0 0.1800000000004544 0  0 0.1700000000004476 0  0 0.1600000000004316 0  0 0.1500000000003986 0  0 0.1400000000003795 0  0 0.1300000000003759 0  0 0.1200000000003428 0  0 0.1100000000003098 0  0 0.1000000000002768 0  0 0.09000000000024383 0  0 0.08000000000021068 0  0 0.07000000000020096 0  0 0.0600000000001879 0  0 0.05000000000015475 0  0 0.04000000000012166 0  0 0.03000000000008857 0  0 0.02000000000005536 0  0 0.01000000000002221 0  0.009999999999981288 0 0  0.01999999999996251 0 0  0.02999999999994353 0 0  0.0399999999999241 0 0  0.04999999999990434 0 0  0.05999999999988457 0 0  0.06999999999986481 0 0  0.07999999999984503 0 0  0.08999999999982462 0 0  0.09999999999980327 0 0  0.1099999999997819 0 0  0.1199999999997606 0 0  0.1299999999997423 0 0  0.1399999999997245 0 0  0.1499999999997079 0 0  0.1599999999996929 0 0  0.1699999999996795 0 0  0.179999999999666 0 0  0.1899999999996523 0 0  0.1999999999996356 0 0  0.209999999999619 0 0  0.2199999999996025 0 0  0.2299999999995879 0 0  0.2399999999995744 0 0  0.249999999999561 0 0  0.2599999999995468 0 0  0.2699999999995302 0 0  0.2799999999995105 0 0  0.2899999999994876 0 0  0.2999999999994596 0 0  0.3099999999994304 0 0  0.3199999999994012 0 0  0.3299999999993699 0 0  0.3399999999993343 0 0  0.3499999999992988 0 0  0.3599999999992632 0 0  0.3699999999992334 0 0  0.3799999999992042 0 0  0.3899999999991749 0 0  0.3999999999991457 0 0  0.4099999999991165 0 0  0.4199999999990872 0 0  0.429999999999058 0 0  0.4399999999990288 0 0  0.4499999999989995 0 0  0.4599999999989703 0 0  0.4699999999989373 0 0  0.4799999999989018 0 0  0.4899999999988663 0 0  0.4999999999988318 0 0  0.5099999999988025 0 0  0.5199999999987733 0 0  0.529999999998744 0 0  0.5399999999987057 0 0  0.5499999999986639 0 0  0.559999999998622 0 0  0.5699999999985838 0 0  0.5799999999985546 0 0  0.5899999999985253 0 0  0.5999999999984962 0 0  0.6099999999984668 0 0  0.6199999999984376 0 0  0.6299999999984084 0 0  0.6399999999983792 0 0  0.6499999999983499 0 0  0.6599999999983207 0 0  0.6699999999982915 0 0  0.6799999999982622 0 0  0.6899999999982329 0 0  0.6999999999982038 0 0  0.7099999999981744 0 0  0.7199999999981452 0 0  0.7299999999981162 0 0  0.7399999999980867 0 0  0.7499999999980577 0 0  0.7599999999980284 0 0  0.769999999997999 0 0  0.7799999999979699 0 0  0.7899999999979407 0 0  0.7999999999979114 0 0  0.8099999999978793 0 0  0.8199999999978375 0 0  0.8299999999977956 0 0  0.8399999999977538 0 0  0.8499999999977218 0 0  0.8599999999976925 0 0  0.8699999999976633 0 0  0.8799999999976341 0 0  0.8899999999976047 0 0  0.8999999999975756 0 0  0.9099999999975463 0 0  0.9199999999975172 0 0  0.9299999999974878 0 0  0.9399999999974586 0 0  0.9499999999974295 0 0  0.9599999999974002 0 0  0.969999999997371 0 0  0.9799999999973418 0 0  0.9899999999973124 0 0  0.9999999999972872 0 0  1.009999999997271 0 0  1.019999999997246 0 0  1.029999999997217 0 0  1.039999999997188 0 0  1.049999999997163 0 0  1.059999999997159 0 0  1.069999999997144 0 0  1.079999999997114 0 0  1.089999999997085 0 0  1.099999999997056 0 0  1.109999999997077 0 0  1.119999999997098 0 0  1.12999999999712 0 0  1.139999999997141 0 0  1.149999999997162 0 0  1.159999999997205 0 0  1.169999999997248 0 0  1.179999999997269 0 0  1.18999999999729 0 0  1.199999999997312 0 0  1.209999999997333 0 0  1.219999999997354 0 0  1.229999999997375 0 0  1.239999999997403 0 0  1.249999999997449 0 0  1.259999999997482 0 0  1.269999999997503 0 0  1.279999999997525 0 0  1.289999999997546 0 0  1.299999999997567 0 0  1.309999999997589 0 0  1.31999999999761 0 0  1.329999999997648 0 0  1.339999999997694 0 0  1.349999999997717 0 0  1.359999999997738 0 0  1.369999999997759 0 0  1.379999999997781 0 0  1.389999999997802 0 0  1.399999999997823 0 0  1.409999999997846 0 0  1.419999999997893 0 0  1.42999999999793 0 0  1.439999999997952 0 0  1.449999999997973 0 0  1.459999999997994 0 0  1.469999999998015 0 0  1.479999999998037 0 0  1.489999999998058 0 0  1.499999999998091 0 0  1.509999999998137 0 0  1.519999999998165 0 0  1.529999999998186 0 0  1.539999999998207 0 0  1.549999999998229 0 0  1.55999999999825 0 0  1.569999999998271 0 0  1.579999999998293 0 0  1.589999999998336 0 0  1.599999999998378 0 0  1.6099999999984 0 0  1.619999999998421 0 0  1.629999999998442 0 0  1.639999999998464 0 0  1.649999999998485 0 0  1.659999999998506 0 0  1.669999999998528 0 0  1.679999999998549 0 0  1.68999999999857 0 0  1.699999999998592 0 0  1.709999999998634 0 0  1.719999999998677 0 0  1.729999999998699 0 0  1.73999999999872 0 0  1.749999999998741 0 0  1.759999999998762 0 0  1.769999999998784 0 0  1.779999999998805 0 0  1.789999999998833 0 0  1.799999999998879 0 0  1.809999999998912 0 0  1.819999999998933 0 0  1.829999999998954 0 0  1.839999999998976 0 0  1.849999999998997 0 0  1.859999999999018 0 0  1.86999999999904 0 0  1.879999999999078 0 0  1.889999999999124 0 0  1.899999999999147 0 0  1.909999999999168 0 0  1.919999999999189 0 0  1.929999999999211 0 0  1.939999999999232 0 0  1.949999999999253 0 0  1.959999999999276 0 0  1.969999999999323 0 0  1.97999999999936 0 0  1.989999999999381 0 0  1.999999999999387 0 0  2.009999999999383 0 0  2.019999999999379 0 0  2.029999999999375 0 0  2.039999999999371 0 0  2.049999999999391 0 0  2.059999999999437 0 0  2.069999999999521 0 0  2.079999999999617 0 0  2.089999999999663 0 0  2.099999999999694 0 0  2.109999999999689 0 0  2.119999999999686 0 0  2.129999999999681 0 0  2.139999999999722 0 0  2.149999999999776 0 0  2.159999999999873 0 0  2.169999999999948 0 0  2.179999999999994 0 0  2.190000000000004 0 0  2.2 0.009999999999981952 0  2.2 0.01999999999996097 0  2.2 0.02999999999994221 0  2.2 0.03999999999992531 0  2.2 0.04999999999991126 0  2.2 0.05999999999988534 0  2.2 0.06999999999985251 0  2.2 0.07999999999982024 0  2.2 0.08999999999980195 0  2.2 0.0999999999997695 0  2.2 0.1099999999997346 0  2.2 0.1199999999997104 0  2.2 0.1299999999996865 0  2.2 0.1399999999996516 0  2.2 0.1499999999996167 0  2.2 0.1599999999995818 0  2.2 0.169999999999564 0  2.2 0.1799999999995553 0  2.2 0.1899999999995205 0  2.2 0.1999999999994856 0  2.2 0.2099999999994845 0  2.2 0.2199999999995173 0  2.2 0.2299999999995501 0  2.2 0.2399999999995566 0  2.2 0.2499999999995723 0  2.2 0.259999999999605 0  2.2 0.2699999999996239 0  2.2 0.2799999999996273 0  2.2 0.2899999999996601 0  2.2 0.2999999999996928 0  2.2 0.3099999999997256 0  2.2 0.3199999999997584 0  2.2 0.3299999999997912 0  2.2 0.3399999999998008 0  2.2 0.3499999999998136 0  2.2 0.3599999999998464 0  2.2 0.3699999999998793 0  2.2 0.3799999999999122 0  2.2 0.3899999999999451 0  2.2 0.3999999999999779 0  2.190000000000005 0.41 0  2.180000000000009 0.41 0  2.170000000000015 0.41 0  2.160000000000019 0.41 0  2.150000000000024 0.41 0  2.140000000000029 0.41 0  2.130000000000033 0.41 0  2.120000000000038 0.41 0  2.110000000000043 0.41 0  2.100000000000048 0.41 0  2.090000000000087 0.41 0  2.080000000000142 0.41 0  2.070000000000197 0.41 0  2.06000000000024 0.41 0  2.050000000000245 0.41 0  2.040000000000249 0.41 0  2.030000000000254 0.41 0  2.020000000000259 0.41 0  2.010000000000264 0.41 0  2.000000000000268 0.41 0  1.990000000000273 0.41 0  1.980000000000278 0.41 0  1.970000000000283 0.41 0  1.960000000000287 0.41 0  1.950000000000292 0.41 0  1.940000000000302 0.41 0  1.930000000000332 0.41 0  1.920000000000362 0.41 0  1.910000000000392 0.41 0  1.900000000000422 0.41 0  1.890000000000452 0.41 0  1.880000000000482 0.41 0  1.870000000000503 0.41 0  1.860000000000508 0.41 0  1.850000000000529 0.41 0  1.840000000000559 0.41 0  1.830000000000588 0.41 0  1.820000000000618 0.41 0  1.810000000000648 0.41 0  1.800000000000678 0.41 0  1.790000000000708 0.41 0  1.780000000000719 0.41 0  1.770000000000725 0.41 0  1.760000000000755 0.41 0  1.750000000000785 0.41 0  1.740000000000815 0.41 0  1.730000000000845 0.41 0  1.720000000000875 0.41 0  1.710000000000905 0.41 0  1.700000000000931 0.41 0  1.690000000000936 0.41 0  1.680000000000951 0.41 0  1.670000000000981 0.41 0  1.660000000001048 0.41 0  1.650000000001128 0.41 0  1.640000000001208 0.41 0  1.630000000001275 0.41 0  1.620000000001305 0.41 0  1.610000000001321 0.41 0  1.600000000001325 0.41 0  1.590000000001351 0.41 0  1.580000000001384 0.41 0  1.57000000000144 0.41 0  1.560000000001495 0.41 0  1.55000000000155 0.41 0  1.540000000001588 0.41 0  1.530000000001618 0.41 0  1.520000000001623 0.41 0  1.510000000001634 0.41 0  1.500000000001664 0.41 0  1.490000000001708 0.41 0  1.480000000001763 0.41 0  1.470000000001818 0.41 0  1.460000000001871 0.41 0  1.450000000001901 0.41 0  1.440000000001922 0.41 0  1.430000000001926 0.41 0  1.420000000001947 0.41 0  1.410000000001977 0.41 0  1.400000000002031 0.41 0  1.390000000002086 0.41 0  1.380000000002141 0.41 0  1.370000000002184 0.41 0  1.360000000002214 0.41 0  1.350000000002224 0.41 0  1.340000000002231 0.41 0  1.33000000000226 0.41 0  1.320000000002299 0.41 0  1.310000000002354 0.41 0  1.300000000002394 0.41 0  1.290000000002424 0.41 0  1.280000000002431 0.41 0  1.270000000002435 0.41 0  1.26000000000244 0.41 0  1.250000000002457 0.41 0  1.240000000002487 0.41 0  1.230000000002536 0.41 0  1.22000000000259 0.41 0  1.21000000000262 0.41 0  1.200
[...]
<PointData  Scalars="p"> 
<DataArray  type="Float64"  Name="p"  format="ascii">5.8991765233428128e-01  5.6542307721981178e-01  0.0000000000000000e+00  0.0000000000000000e+00  -8.6206219351823599e-01  -8.8937946793385325e-01  5.6529763215654194e-01  5.6578711483670452e-01  5.6759151729922308e-01  5.7132428768903254e-01  5.7752909558315102e-01  5.8650196723427550e-01  5.9879363257656248e-01  6.1448448205748318e-01  6.3375165831041180e-01  6.5643160792086996e-01  6.8218931022161544e-01  7.1048161180104552e-01  7.4053412337019364e-01  7.7140400388477881e-01  8.0197888999112787e-01  8.3059189207366335e-01  8.5659792443418536e-01  8.7825777086246870e-01  8.9459395697358846e-01  9.0470136053585537e-01  9.0713979073924811e-01  9.0339758035838580e-01  8.9255707720134447e-01  8.7536582231117022e-01  8.5312244171932139e-01  8.2732349816070583e-01  7.9885829636104033e-01  7.6901843905931744e-01  7.3959764261407079e-01  7.1125330813240406e-01  6.8509194798527417e-01  6.6174454786768400e-01  6.4176043801332017e-01  6.2524824823445868e-01  6.1231931225760694e-01  6.0274721143531029e-01  5.9619322347148263e-01  5.9223629195921679e-01  5.9031223629785823e-01  5.8978631036818074e-01  5.8943199096308407e-01  5.8859803927982379e-01  5.8696278792289858e-01  5.8434885373293288e-01  5.8077376566576089e-01  5.7616590268977042e-01  5.7083273693248837e-01  5.6467063218369451e-01  5.5780677585203309e-01  5.5025133685296257e-01  5.4159615375130454e-01  5.3212016179087218e-01  5.2113840962920543e-01  5.0884967683937921e-01  4.9489289100181538e-01  4.7926860637382196e-01  4.6214303357528347e-01  4.4351750265034806e-01  4.2383088048234885e-01  4.0340530271417246e-01  3.8269350210235048e-01  3.6244547652891229e-01  3.4272441103727580e-01  3.2424999728808357e-01  3.0749392531181929e-01  2.9292870152331618e-01  2.8032315191175922e-01  2.6970301713401618e-01  2.6163018270391497e-01  2.5625315345665628e-01  2.5328719985175541e-01  2.5172205124726260e-01  2.5302145069698417e-01  2.5501340400014361e-01  2.5969121085220614e-01  2.6506982502111848e-01  2.7135988505400999e-01  2.7941178142387912e-01  2.8693090199447679e-01  2.9536400395264417e-01  3.0409799607560795e-01  3.1191396762231421e-01  3.2014603613297155e-01  3.2745313358548467e-01  3.3446257416736963e-01  3.4060794240725839e-01  3.4609155900863142e-01  3.5099582996406575e-01  3.5484262892625368e-01  3.5832521941517786e-01  3.6059991356838195e-01  3.6280083135273955e-01  3.6437971155217908e-01  3.6509297773633370e-01  3.6563968320035273e-01  3.6616162769069904e-01  3.6557338618384816e-01  3.6522785421798953e-01  3.6445890768768502e-01  3.6347485940208463e-01  3.6232972490210102e-01  3.6115637293565517e-01  3.5954111633018715e-01  3.5811263848555108e-01  3.5644891587227351e-01  3.5477110039461562e-01  3.5290229567632114e-01  3.5121237136717476e-01  3.4915517365005877e-01  3.4716713645403180e-01  3.4531080428681427e-01  3.4324972221675704e-01  3.4126350795401372e-01  3.3915663111825328e-01  3.3717316245676165e-01  3.3513799411220802e-01  3.3308961374081286e-01  3.3078301164759838e-01  3.2881614477860543e-01  3.2683597637498307e-01  3.2441670824055663e-01  3.2239206204691989e-01  3.2037896118764064e-01  3.1817670292998368e-01  3.1625383807914192e-01  3.1379037555727085e-01  3.1181467706543209e-01  3.0962472097592181e-01  3.0759218893758616e-01  3.0536109935314637e-01  3.0326486879458026e-01  3.0125760258233347e-01  2.9908823045609184e-01  2.9671745401845051e-01  2.9467086729234765e-01  2.9266872056505033e-01  2.9043981460858831e-01  2.8832920419890545e-01  2.8607184613011910e-01  2.8402871492216181e-01  2.8185516414303141e-01  2.7997776835368343e-01  2.7759228164988797e-01  2.7547734977846178e-01  2.7338399474962527e-01  2.7124677975002048e-01  2.6897245378464102e-01  2.6698951220728134e-01  2.6486905203372468e-01  2.6255026904687750e-01  2.6063148883783127e-01  2.5842386498504283e-01  2.5616831669589912e-01  2.5419634635072691e-01  2.5209415642218247e-01  2.4978286664947860e-01  2.4779485871921506e-01  2.4556340576778238e-01  2.4348633697878380e-01  2.4135881126706882e-01  2.3917357796508434e-01  2.3707157800216402e-01  2.3495836744674711e-01  2.3285654367273584e-01  2.3054714345997510e-01  2.2877431470303330e-01  2.2627192372408284e-01  2.2431203572972583e-01  2.2217506772917719e-01  2.2010582481000043e-01  2.1772166248161451e-01  2.1573394942942462e-01  2.1378677494297924e-01  2.1135974292470758e-01  2.0937438693042690e-01  2.0732415566766332e-01  2.0492694840353123e-01  2.0296994228104698e-01  2.0074945737870442e-01  1.9858851998990235e-01  1.9677970564613809e-01  1.9435259380042100e-01  1.9223531206302075e-01  1.9016229891295267e-01  1.8798059669365316e-01  1.8598081277154832e-01  1.8380430953147570e-01  1.8156747297416129e-01  1.7951372879200850e-01  1.7751634981639988e-01  1.7514816251536164e-01  1.7309160611412316e-01  1.7095423068789395e-01  1.6884510253969534e-01  1.6667195359556464e-01  1.6455980711169832e-01  1.6263243158006918e-01  1.6025004919759536e-01  1.5820408226707086e-01  1.5618236413921141e-01  1.5381663000179796e-01  1.5194224755674116e-01  1.4968665166640860e-01  1.4757763913177105e-01  1.4535382032793862e-01  1.4340586759381657e-01  1.4125127552339764e-01  1.3909422198674110e-01  1.3708694607408958e-01  1.3475564839695511e-01  1.3277040256094205e-01  1.3065045890244567e-01  1.2863406451231385e-01  1.2644857081627431e-01  1.2418938897268836e-01  1.2221380544697613e-01  1.2005330412921986e-01  1.1810688432112729e-01  1.1586312796764979e-01  1.1389070365443923e-01  1.1163324307537069e-01  1.0981396771280073e-01  1.0764238232505660e-01  1.0559964501367705e-01  1.0340361576044560e-01  1.0145914747797051e-01  9.9425093522139144e-02  9.7440794105459527e-02  9.5391154469423964e-02  9.3453451360691192e-02  9.1550680899616446e-02  8.9417641487779795e-02  8.7584087324305809e-02  8.5712285352458326e-02  8.3855461155806041e-02  8.2065314596472816e-02  8.0226401231556180e-02  7.8371339022580963e-02  7.6834700765867223e-02  7.5199416208824574e-02  7.3495749167769936e-02  7.2155049109014505e-02  7.0752265223569560e-02  6.9436912087091726e-02  6.8339490981370640e-02  6.7131032076626990e-02  6.6463326884143331e-02  6.5579970830221934e-02  6.5043535237186131e-02  6.4869075444769858e-02  6.4685284412256891e-02  6.5154709104661673e-02  6.5647230741315662e-02  6.6354274603460495e-02  6.7784148402345257e-02  6.9189769248063276e-02  7.1014561267052786e-02  7.2785717331489211e-02  7.0549530577359049e-02  0.0000000000000000e+00  0.0000000000000000e+00  0.0000000000000000e+00  0.0000000000000000e+00  0.0000000000000000e+00  0.0000000000000000e+00  0.0000000000000000e+00  0.0000000000000000e+00  0.0000000000000000e+00  0.0000000000000000e+00  0.0000000000000000e+00  0.0000000000000000e+00  0.0000000000000000e+00  0.0000000000000000e+00  0.0000000000000000e+00  0.0000000000000000e+00  0.0000000000000000e+00  0.0000000000000000e+00  0.0000000000000000e+00  0.0000000000000000e+00  0.0000000000000000e+00  0.0000000000000000e+00  0.0000000000000000e+00  0.0000000000000000e+00  0.0000000000000000e+00  0.0000000000000000e+00  0.0000000000000000e+00  0.0000000000000000e+00  0.0000000000000000e+00  0.0000000000000000e+00  0.0000000000000000e+00  0.0000000000000000e+00  0.0000000000000000e+00  0.0000000000000000e+00  0.0000000000000000e+00  0.0000000000000000e+00  0.0000000000000000e+00  0.0000000000000000e+00  0.0000000000000000e+00  0.0000000000000000e+00  6.2317111990065545e-02  6.1265863098972431e-02  6.0257935393529236e-02  5.9526266196023393e-02  5.8543530302516071e-02  5.8070690290830673e-02  5.7823260490350047e-02  5.7818238989501530e-02  5.8160382567940407e-02  5.8691934764986374e-02  5.9408845993781843e-02  6.0435707706640182e-02  6.1359740992449716e-02  6.2834890784365785e-02  6.4008461713780593e-02  6.5744523006393954e-02  6.7073868908364725e-02  6.8855090907690791e-02  7.0442458273138969e-02  7.2315086488912481e-02  7.4142761958509315e-02  7.6009104217874532e-02  7.7921995690908852e-02  7.9895446397834413e-02  8.1726378954607923e-02  8.4005518206638638e-02  8.5899331040120180e-02  8.7792468679993838e-02  9.0078479028744815e-02  9.2216478664698773e-02  9.4001956433964279e-02  9.6468075099586548e-02  9.8321692294033855e-02  1.0044378210179954e-01  1.0247284305310346e-01  1.0478854907967711e-01  1.0678230158203574e-01  1.0897819787045854e-01  1.1106827641079682e-01  1.1308232007336984e-01  1.1548855037986304e-01  1.1742853875975194e-01  1.1954092556443240e-01  1.2158762694450581e-01  1.2413705711302901e-01  1.2604380420720918e-01  1.2821824472812865e-01  1.3021952732713415e-01  1.3233719926628754e-01  1.3457630178113153e-01  1.3670083132677513e-01  1.3882466047979211e-01  1.4097644004800841e-01  1.4303239071241972e-01  1.4528064605552590e-01  1.4743209108847613e-01  1.4948610303854992e-01  1.5166923101997823e-01  1.5383169253825421e-01  1.5592300063227565e-01  1.5797490714376561e-01  1.6027418838264348e-01  1.6250373248395422e-01  1.6443662348450913e-01  1.6651714344600069e-01  1.6874240697572673e-01  1.7086556832301081e-01  1.7313108956931886e-01  1.7503311575664315e-01  1.7732994704254357e-01  1.7946422230497452e-01  1.8161669666486988e-01  1.8358207236138588e-01  1.8598139432370084e-01  1.8787516996229436e-01  1.9005135528865894e-01  1.9232147187073051e-01  1.9432244441757809e-01  1.9656310831533644e-01  1.9867846919167231e-01  2.0080385807841578e-01  2.0289623050132319e-01  2.0505029439211866e-01  2.0713768256486859e-01  2.0932922502722373e-01  2.1137003892193418e-01  2.1349782351106805e-01  2.1586675119475549e-01  2.1788776303618582e-01  2.1980999034518683e-01  2.2223931256978616e-01  2.2430114804442547e-01  2.2621561125185374e-01  2.2855788585430015e-01  2.3066442894470077e-01  2.3278166682228993e-01  2.3475379414055356e-01  2.3735296345097531e-01  2.3924602053424987e-01  2.4130140250211299e-01  2.4335870927760248e-01  2.4556451953177866e-01  2.4768444698447492e-01  2.4980552667613673e-01  2.5207023318324029e-01  2.5420677427956928e-01  2.5611297948239664e-01  2.5833714219700804e-01  2.6045221085372838e-01  2.6269285141171639e-01  2.6475467500123773e-01  2.6676267035476747e-01  2.6909563596047359e-01  2.7117264647411171e-01  2.7332740006037648e-01  2.7530678019596339e-01  2.7775762550563571e-01  2.7958797707384103e-01  2.8175869042567359e-01  2.8391464369969049e-01  2.8595391978746137e-01  2.8833629001100852e-01  2.9026315312429940e-01  2.9245670239993310e-01  2.9459831276787640e-01  2.9672122143444174e-01  2.9869394632626595e-01  3.0115077917442135e-01  3.0292340346038632e-01  3.0533081794863431e-01  3.0726903107690318e-01  3.0932886382054847e-01  3.1158941019352304e-01  3.1358139409415792e-01  3.1576851130322997e-01  3.1791607171889497e-01  3.1987572708089801e-01  3.2208930313424217e-01  3.2403652241304309e-01  3.2626913965237508e-01  3.2814752322804380e-01  3.3051477188622408e-01  3.3241855196203357e-01  3.3439152713850412e-01  3.3675165296150339e-01  3.3843642750025343e-01  3.4049255315599491e-01  3.4260071469370157e-01  3.4432154176554441e-01  3.4636565103848577e-01  3.4827824984118816e-01  3.5010606201476330e-01  3.5176498791534172e-01  3.5360727838840722e-01  3.5515741855414185e-01  3.5679596694042170e-01  3.5814569280369790e-01  3.5987268011438622e-01  3.6079203748569377e-01  3.6179574122606406e-01  3.6288505594273390e-01  3.6359805499708903e-01  3.6396670017693006e-01  3.6407724516032747e-01  3.6410633208648302e-01  3.6334374018404308e-01  3.6272423615453214e-01  3.6130855830388142e-01  3.5959628448833697e-01  3.5716115546367844e-01  3.5418312203262270e-01  3.5091499844666746e-01  3.4667957753455553e-01  3.4226540080114520e-01  3.3689351032749670e-01  3.3131142609052050e-01  3.2500324859545460e-01  3.1897295787812574e-01  3.1226431817731498e-01  3.0549490862820239e-01  2.9929517368174308e-01  2.9315811451236085e-01  2.8776790611045383e-01  2.8309228025903416e-01  2.7926793557447810e-01  2.7696922052904549e-01  2.7579161429313981e-01  2.7630813465928566e-01  2.7853858768706080e-01  2.8233922424672214e-01  2.8811426206579144e-01  2.9578941816101595e-01  3.0536855811280528e-01  3.1685870335403682e-01  3.2986199165100322e-01  3.4434072654886522e-01  3.5971381211580677e-01  3.7608675331309777e-01  3.9284743787827137e-01  4.0965677956171026e-01  4.2604486000372349e-01  4.4198528717435714e-01  4.5678835535207968e-01  4.7046162327024688e-01  4.8291825397567606e-01  4.9417213354743822e-01  5.0423780990698119e-01  5.1317359963756382e-01  5.2125471141980395e-01  5.2859936251037276e-01  5.3539711120130828e-01  5.4152694700146509e-01  5.4720890494180985e-01  5.5211952428614264e-01  5.5652994850934390e-01  5.5995955166930700e-01  5.6247321370228287e-01  5.6408814853650369e-01  5.6492298427139553e-01  -9.8284978757113139e-01  -8.8809536855867988e-01  -5.4624557166176058e-01  1.9611687653747455e-02  7.8603177415608361e-01  1.4467379852822713e+00  1.9301885554866860e+00  2.1005618058859059e+00  1.9051086950641216e+00  1.4055965502876140e+00  7.4901888178387399e-01  4.7624653089877152e-03  -5.7832602625160012e-01  -8.6971700416337472e-01  -9.7649643823244214e-01  -6.9325458258233663e-01  -5.4705776510360171e-01  -4.5018788779086061e-01  -4.1014010205860374e-01  -4.0462471178174819e-01  -3.6530515638732158e-01  -2.5672689796762971e-01  -1.9090260101049683e-01  -2.5540528541533614e-01  -3.6686699928393468e-01  -4.0982842046980578e-01  -4.1175984830716994e-01  -4.4807033434616061e-01  -5.4869200794476358e-01  -6.9331204740432439e-01  4.5792097245936392e-01  1.4423443247640033e-01  2.0185528094483737e-01  3.2357230044180368e-01  8.7734906477597241e-02  2.4701062258703910e-01  2.8488897034731037e-01  3.6504686426173127e-01  5.5182289631806304e-02  1.7292458683667597e-01  1.1604029718170092e-01  1.2028249516381938e-01  1.6790461915088503e-01  6.1590229703444362e-02  2.2424640144227620e-01  2.2440033787161506e-01  2.6675380481745237e-01  3.8048764673537550e-01  3.4507565940042545e-01  3.0149673386541309e-01  2.6814782817265892e-01  2.7857607025117492e-01  2.6395725502211964e-01  3.0641047162470175e-01  3.8406421404361057e-01  3.4080670076407971e-01  1.9056606262035991e-01  9.8253942854353571e-02  1.5202620082380372e-01  1.9379764635310956e-01  9.5078517212607072e-02  1.4139162685415560e-01  3.8083014256439612e-01  2.4536485301720057e-01  3.2303957519147936e-01  6.1088686231832268e-01  7.7981956998497429e-02  6.4145164172325075e-01  2.4366598542074830e-01  3.2940208362149941e-02  3.7397296624480109e-01  1.3268252970383942e-01  4.4775923574267865e-02  2.8824469040101924e-01  3.6337750643316707e-01  1.1423911776476367e-01  7.9739309411487103e-02  2.8541089703186168e-01  3.5980429839487088e-01  1.8342141394304640e-01  4.8914332597799808e-02  3.2351830906827311e-01  2.0837206368437564e-01  1.0657896321041167e-01  1.3905438474283754e-01  3.9120463854200033e-01  3.4529420708208164e-01  2.6754239091883580e-01  3.0569157889218723e-01  7.8406205662663625e-02  3.3049151901902857e-01  2.1041535387415666e-01  6.8250385688497880e-02  2.1886171588451087e-01  1.6167503725243471e-01  1.2729655951695198e-01  1.0304692226063046e+00  3.5756462371548192e-01  1.5639746053078490e-01  1.6744612162217956e-01  1.1005309275057003e-01  6.5416932901490463e-02  1.7722829753655917e-01  1.1206257900193219e-01  9.9003914915604740e-01  2.7024599116704136e-02  3.6732085530416242e-01  2.8783637806017554e-01  1.2811832234170312e-01  2.5922640447994105e-01  1.5315244335854017e-01  2.3218763571993431e-01  3.7045337716183996e-01  3.3601341380229077e-01  3.1041779759382576e-01  3.1978176765065924e-01  2.7395553198390155e-01  3.5016084993897034e-01  1.8166835476924578e-01  7.8577522423575213e-02  2.1030480491264603e-01  2.3269871607276932e-01  2.3030286934286337e-01  6.1693905161599720e-02  2.5516082675349866e-01  2.1043420937444768e-01  4.7492766276380383e-01  2.3753530738979570e-01  3.0295365930662171e-01  4.0870887582164445e-01  3.3239984526638838e-01  3.1477962894556011e-01  4.4385614269973656e-01  2.5582458819758142e-01  -3.6880959295833998e-01  1.3574414849553432e-01  2.5246879516035686e-01  3.6798192006937919e-01  -4.0087254682460172e-01  3.1876545988495281e-01  2.7235280241043675e-01  2.7705491667862270e-01  3.5462398589255134e-01  8.6157221970574349e-02  1.8614581241638059e-01  2.9988323810787737e-01  3.6894346054709537e-01  2.5174151460397060e-01  8.9808330230980435e-02  1.0296378688980616e-01  4.1562508391564973e-01  3.6629361344713213e-01  3.4841522474751513e-01  2.9722090416995622e-01  3.3576794172346175e-01  1.3577477083054806e-01  1.4400800958786383e-01  2.9670018573927809e-01  3.3394373001219252e-01  3.7501886180470689e-01  2.5269430948096666e-01  1.2250485594244336e-01  1.9710227590716661e-01  3.1244309525568942e-01  5.7179310163751040e-01  2.2924372614392219e-01  2.1723418824086422e-02  1.5265499217995462e-01  5.2214017517350352e-02  5.9818838251274442e-01  1.8017182266604903e-01  6.9911674250663580e-02  2.1874503349423338e-01  2.7616160848879989e-01  3.5419163766081080e-01  2.8886012185988791e-01  1.9954931555878336e-01  8.9507452529254267e-02  1.0774728298139129e-01  1.9375023372251676e-01  2.2067079301247755e-01  4.9066032068338317e-01  1.5623560423937879e-01  1.7186936958825758e-01  1.0131840185334158e-01  1.4616104596783414e-01  9.7178022664803507e-02  2.3614615424217447e-01  -1.4587899434641938e-02  5.0450459311230975e-02  7.4879971973738124e-01  3.8892214882830273e-01  4.6047064249311924e-02  1.6213840692402773e-01  1.9889026364598669e-01  4.4240382754269542e-01  1.6670876539176019e-01  9.0663808681961361e-02  5.1670350992600189e-01  2.9460697424319476e-01  2.4839965514829365e-01  3.5481994721114102e-01  3.2587340250350366e-01  7.5324619175636987e-02  1.0038618353009300e-01  2.0082944780953094e-01  9.0105265837897630e-01  7.4567542613429283e-01  1.1651254488531623e-01  6.0027089142482365e-02  2.5706340521322318e-01  4.4212046101158942e-01  4.1841314522258166e-01  1.8684197714297951e-01  1.1397418724071828e-02  2.2759930673456524e-01  2.4004855339253836e-01  7.1753208456194859e-02  -9.6468276763643931e-02  6.2372787830698870e-02  1.2683629566683219e-01  1.4191387289582760e-01  2.4466383434321703e-01  1.2969414444927435e-01  3.3055511549035804e-01  2.5958740750634732e-02  1.8117346953151625e-01  4.3203956746929306e-01  2.8314115030066139e-01  3.5783309858595802e-01  5.6860452724868699e-02  3.3161648644496278e-01  3.5543302493522261e-01  2.7829568787779602e-01  7.8629831748802559e-02  1.3649855471981495e-01  2.6500635412191448e-01  1.4126542983141022e+00  1.9208638457216554e-01  3.7540868656898069e-01  2.3430323215602275e-01  2.5771349089661488e-01  9.8161095820147393e-01  1.3422660211434348e-01  2.9632437042130211e-01  2.8820088768556895e-01  3.6275858636984226e-01  8.5174066198090273e-02  5.4273126276901999e-02  9.7658796324344474e-02  1.9030187197827100e-01  9.7917732850555639e-01  2.6419885212892968e-01  1.2667977860923876e-01  2.8185171536898534e-01  2.0390587348921826e-01  1.1983835063911231e-01  3.3517039908682023e-01  2.9243880156213470e-01  3.6878069859560403e-01  3.6024881019630767e-01  4.0525840698010344e-02  1.1806897288726792e-01  3.8318024128124217e-01  3.9523953242559562e-01  3.0962935298121746e-01  1.0482984705084777e-01  2.6904697665862093e-01  3.4636743761541816e-01  2.4507667734332234e-01  1.7680435907714409e-01  1.2922689240604709e-01  3.2639250387775987e-01  1.1511745588200922e-01  1.7365012882708808e-01  6.8564889854082461e-02  2.8250618274385596e-02  3.1106388009821961e-01  3.3562168833708605e-01  3.8633931951957673e-01  2.1765228850359675e-01  -4.1317052114193448e-01  2.0645433965357526e-01  3.8741498011884734e-01  2.3965665906852363e-01  6.5005593664912334e-02  3.1497365620146489e-01  3.4249459838602514e-01  3.0099659902593878e-01  3.9689749298895866e-01  1.5290688238034872e-01  2.5452806143604362e-01  -3.4002421936755989e-01  3.1736641281782252e-01  3.1468784003743011e-01  1.6153281396987160e-01  6.8219566022575118e-02  9.1983120186211673e-02  1.2671607810553609e-01  3.4318761034642487e-01  1.4490501568022243e-01  3.3124727508846974e-01  2.1570386754272788e-01  3.5417158066527366e-01  2.7663616464742752e-