<?xml version="1.0"?>
<VTKFile type="UnstructuredGrid"  version="0.1"  >
<UnstructuredGrid>
<Piece  NumberOfPoints="12123" NumberOfCells="23692">
<Points>
<DataArray  type="Float64"  NumberOfComponents="3"  format="ascii">0 0 0  0 0.41 0  2.2 0 0  2.2 0.41 0  0.2 0.15 0  0.2 0.25 0  0 0.4000000000000008 0  0 0.3900000000000259 0  0 0.3800000000000606 0  0 0.3700000000000953 0  0 0.3600000000001082 0  0 0.3500000000001241 0  0 0.3400000000001558 0  0 0.3300000000001905 0  0 0.3200000000002133 0  0 0.3100000000002381 0  0 0.3000000000002728 0  0 0.2900000000003075 0  0 0.2800000000003204 0  0 0.2700000000003551 0  0 0.2600000000003897 0  0 0.2500000000004243 0  0 0.2400000000004419 0  0 0.2300000000004503 0  0 0.2200000000004849 0  0 0.2100000000005195 0  0 0.2000000000005203 0  0 0.1900000000004874 0  0 0.1800000000004544 0  0 0.1700000000004476 0  0 0.1600000000004316 0  0 0.1500000000003986 0  0 0.1400000000003795 0  0 0.1300000000003759 0  0 0.1200000000003428 0  0 0.1100000000003098 0  0 0.1000000000002768 0  0 0.09000000000024383 0  0 0.08000000000021068 0  0 0.07000000000020096 0  0 0.0600000000001879 0  0 0.05000000000015475 0  0 0.04000000000012166 0  0 0.03000000000008857 0  0 0.02000000000005536 0  0 0.01000000000002221 0  0.009999999999981288 0 0  0.01999999999996251 0 0  0.02999999999994353 0 0  0.0399999999999241 0 0  0.04999999999990434 0 0  0.05999999999988457 0 0  0.06999999999986481 0 0  0.07999999999984503 0 0  0.08999999999982462 0 0  0.09999999999980327 0 0  0.1099999999997819 0 0  0.1199999999997606 0 0  0.1299999999997423 0 0  0.1399999999997245 0 0  0.1499999999997079 0 0  0.1599999999996929 0 0  0.1699999999996795 0 0  0.179999999999666 0 0  0.1899999999996523 0 0  0.1999999999996356 0 0  0.209999999999619 0 0  0.2199999999996025 0 0  0.2299999999995879 0 0  0.2399999999995744 0 0  0.249999999999561 0 0  0.2599999999995468 0 0  0.2699999999995302 0 0  0.2799999999995105 0 0  0.2899999999994876 0 0  0.2999999999994596 0 0  0.3099999999994304 0 0  0.3199999999994012 0 0  0.3299999999993699 0 0  0.3399999999993343 0 0  0.3499999999992988 0 0  0.3599999999992632 0 0  0.3699999999992334 0 0  0.3799999999992042 0 0  0.3899999999991749 0 0  0.3999999999991457 0 0  0.4099999999991165 0 0  0.4199999999990872 0 0  0.429999999999058 0 0  0.4399999999990288 0 0  0.4499999999989995 0 0  0.4599999999989703 0 0  0.4699999999989373 0 0  0.4799999999989018 0 0  0.4899999999988663 0 0  0.4999999999988318 0 0  0.5099999999988025 0 0  0.5199999999987733 0 0  0.529999999998744 0 0  0.5399999999987057 0 0  0.5499999999986639 0 0  0.559999999998622 0 0  0.5699999999985838 0 0  0.5799999999985546 0 0  0.5899999999985253 0 0  0.5999999999984962 0 0  0.6099999999984668 0 0  0.6199999999984376 0 0  0.6299999999984084 0 0  0.6399999999983792 0 0  0.6499999999983499 0 0  0.6599999999983207 0 0  0.6699999999982915 0 0  0.6799999999982622 0 0  0.6899999999982329 0 0  0.6999999999982038 0 0  0.7099999999981744 0 0  0.7199999999981452 0 0  0.7299999999981162 0 0  0.7399999999980867 0 0  0.7499999999980577 0 0  0.7599999999980284 0 0  0.769999999997999 0 0  0.7799999999979699 0 0  0.7899999999979407 0 0  0.7999999999979114 0 0  0.8099999999978793 0 0  0.8199999999978375 0 0  0.8299999999977956 0 0  0.8399999999977538 0 0  0.8499999999977218 0 0  0.8599999999976925 0 0  0.8699999999976633 0 0  0.8799999999976341 0 0  0.8899999999976047 0 0  0.8999999999975756 0 0  0.9099999999975463 0 0  0.9199999999975172 0 0  0.9299999999974878 0 0  0.9399999999974586 0 0  0.9499999999974295 0 0  0.9599999999974002 0 0  0.969999999997371 0 0  0.9799999999973418 0 0  0.9899999999973124 0 0  0.9999999999972872 0 0  1.009999999997271 0 0  1.019999999997246 0 0  1.029999999997217 0 0  1.039999999997188 0 0  1.049999999997163 0 0  1.059999999997159 0 0  1.069999999997144 0 0  1.079999999997114 0 0  1.089999999997085 0 0  1.099999999997056 0 0  1.109999999997077 0 0  1.119999999997098 0 0  1.12999999999712 0 0  1.139999999997141 0 0  1.149999999997162 0 0  1.159999999997205 0 0  1.169999999997248 0 0  1.179999999997269 0 0  1.18999999999729 0 0  1.199999999997312 0 0  1.209999999997333 0 0  1.219999999997354 0 0  1.229999999997375 0 0  1.239999999997403 0 0  1.249999999997449 0 0  1.259999999997482 0 0  1.269999999997503 0 0  1.279999999997525 0 0  1.289999999997546 0 0  1.299999999997567 0 0  1.309999999997589 0 0  1.31999999999761 0 0  1.329999999997648 0 0  1.339999999997694 0 0  1.349999999997717 0 0  1.359999999997738 0 0  1.369999999997759 0 0  1.379999999997781 0 0  1.389999999997802 0 0  1.399999999997823 0 0  1.409999999997846 0 0  1.419999999997893 0 0  1.42999999999793 0 0  1.439999999997952 0 0  1.449999999997973 0 0  1.459999999997994 0 0  1.469999999998015 0 0  1.479999999998037 0 0  1.489999999998058 0 0  1.499999999998091 0 0  1.509999999998137 0 0  1.519999999998165 0 0  1.529999999998186 0 0  1.539999999998207 0 0  1.549999999998229 0 0  1.55999999999825 0 0  1.569999999998271 0 0  1.579999999998293 0 0  1.589999999998336 0 0  1.599999999998378 0 0  1.6099999999984 0 0  1.619999999998421 0 0  1.629999999998442 0 0  1.639999999998464 0 0  1.649999999998485 0 0  1.659999999998506 0 0  1.669999999998528 0 0  1.679999999998549 0 0  1.68999999999857 0 0  1.699999999998592 0 0  1.709999999998634 0 0  1.719999999998677 0 0  1.729999999998699 0 0  1.73999999999872 0 0  1.749999999998741 0 0  1.759999999998762 0 0  1.769999999998784 0 0  1.779999999998805 0 0  1.789999999998833 0 0  1.799999999998879 0 0  1.809999999998912 0 0  1.819999999998933 0 0  1.829999999998954 0 0  1.839999999998976 0 0  1.849999999998997 0 0  1.859999999999018 0 0  1.86999999999904 0 0  1.879999999999078 0 0  1.889999999999124 0 0  1.899999999999147 0 0  1.909999999999168 0 0  1.919999999999189 0 0  1.929999999999211 0 0  1.939999999999232 0 0  1.949999999999253 0 0  1.959999999999276 0 0  1.969999999999323 0 0  1.97999999999936 0 0  1.989999999999381 0 0  1.999999999999387 0 0  2.009999999999383 0 0  2.019999999999379 0 0  2.029999999999375 0 0  2.039999999999371 0 0  2.049999999999391 0 0  2.059999999999437 0 0  2.069999999999521 0 0  2.079999999999617 0 0  2.089999999999663 0 0  2.099999999999694 0 0  2.109999999999689 0 0  2.119999999999686 0 0  2.129999999999681 0 0  2.139999999999722 0 0  2.149999999999776 0 0  2.159999999999873 0 0  2.169999999999948 0 0  2.179999999999994 0 0  2.190000000000004 0 0  2.2 0.009999999999981952 0  2.2 0.01999999999996097 0  2.2 0.02999999999994221 0  2.2 0.03999999999992531 0  2.2 0.04999999999991126 0  2.2 0.05999999999988534 0  2.2 0.06999999999985251 0  2.2 0.07999999999982024 0  2.2 0.08999999999980195 0  2.2 0.0999999999997695 0  2.2 0.1099999999997346 0  2.2 0.1199999999997104 0  2.2 0.1299999999996865 0  2.2 0.1399999999996516 0  2.2 0.1499999999996167 0  2.2 0.1599999999995818 0  2.2 0.169999999999564 0  2.2 0.1799999999995553 0  2.2 0.1899999999995205 0  2.2 0.1999999999994856 0  2.2 0.2099999999994845 0  2.2 0.2199999999995173 0  2.2 0.2299999999995501 0  2.2 0.2399999999995566 0  2.2 0.2499999999995723 0  2.2 0.259999999999605 0  2.2 0.2699999999996239 0  2.2 0.2799999999996273 0  2.2 0.2899999999996601 0  2.2 0.2999999999996928 0  2.2 0.3099999999997256 0  2.2 0.3199999999997584 0  2.2 0.3299999999997912 0  2.2 0.3399999999998008 0  2.2 0.3499999999998136 0  2.2 0.3599999999998464 0  2.2 0.3699999999998793 0  2.2 0.3799999999999122 0  2.2 0.3899999999999451 0  2.2 0.3999999999999779 0  2.190000000000005 0.41 0  2.180000000000009 0.41 0  2.170000000000015 0.41 0  2.160000000000019 0.41 0  2.150000000000024 0.41 0  2.140000000000029 0.41 0  2.130000000000033 0.41 0  2.120000000000038 0.41 0  2.110000000000043 0.41 0  2.100000000000048 0.41 0  2.090000000000087 0.41 0  2.080000000000142 0.41 0  2.070000000000197 0.41 0  2.06000000000024 0.41 0  2.050000000000245 0.41 0  2.040000000000249 0.41 0  2.030000000000254 0.41 0  2.020000000000259 0.41 0  2.010000000000264 0.41 0  2.000000000000268 0.41 0  1.990000000000273 0.41 0  1.980000000000278 0.41 0  1.970000000000283 0.41 0  1.960000000000287 0.41 0  1.950000000000292 0.41 0  1.940000000000302 0.41 0  1.930000000000332 0.41 0  1.920000000000362 0.41 0  1.910000000000392 0.41 0  1.900000000000422 0.41 0  1.890000000000452 0.41 0  1.880000000000482 0.41 0  1.870000000000503 0.41 0  1.860000000000508 0.41 0  1.850000000000529 0.41 0  1.840000000000559 0.41 0  1.830000000000588 0.41 0  1.820000000000618 0.41 0  1.810000000000648 0.41 0  1.800000000000678 0.41 0  1.790000000000708 0.41 0  1.780000000000719 0.41 0  1.770000000000725 0.41 0  1.760000000000755 0.41 0  1.750000000000785 0.41 0  1.740000000000815 0.41 0  1.730000000000845 0.41 0  1.720000000000875 0.41 0  1.710000000000905 0.41 0  1.700000000000931 0.41 0  1.690000000000936 0.41 0  1.680000000000951 0.41 0  1.670000000000981 0.41 0  1.660000000001048 0.41 0  1.650000000001128 0.41 0  1.640000000001208 0.41 0  1.630000000001275 0.41 0  1.620000000001305 0.41 0  1.610000000001321 0.41 0  1.600000000001325 0.41 0  1.590000000001351 0.41 0  1.580000000001384 0.41 0  1.57000000000144 0.41 0  1.560000000001495 0.41 0  1.55000000000155 0.41 0  1.540000000001588 0.41 0  1.530000000001618 0.41 0  1.520000000001623 0.41 0  1.510000000001634 0.41 0  1.500000000001664 0.41 0  1.490000000001708 0.41 0  1.480000000001763 0.41 0  1.470000000001818 0.41 0  1.460000000001871 0.41 0  1.450000000001901 0.41 0  1.440000000001922 0.41 0  1.430000000001926 0.41 0  1.420000000001947 0.41 0  1.410000000001977 0.41 0  1.400000000002031 0.41 0  1.390000000002086 0.41 0  1.380000000002141 0.41 0  1.370000000002184 0.41 0  1.360000000002214 0.41 0  1.350000000002224 0.41 0  1.340000000002231 0.41 0  1.33000000000226 0.41 0  1.320000000002299 0.41 0  1.310000000002354 0.41 0  1.300000000002394 0.41 0  1.290000000002424 0.41 0  1.280000000002431 0.41 0  1.270000000002435 0.41 0  1.26000000000244 0.41 0  1.250000000002457 0.41 0  1.240000000002487 0.41 0  1.230000000002536 0.41 0  1.22000000000259 0.41 0  1.21000000000262 0.41 0  1.200
[...]
<PointData  Scalars="p"> 
<DataArray  type="Float64"  Name="p"  format="ascii">4.4443010219933454e-01  4.0163612301251245e-01  0.0000000000000000e+00  0.0000000000000000e+00  -9.1928962368300249e-01  -9.3802544140147615e-01  4.0151496026247069e-01  4.0183251875805298e-01  4.0336882088423703e-01  4.0685448532603014e-01  4.1291267052088604e-01  4.2185604334931137e-01  4.3426729226992156e-01  4.5022530686849754e-01  4.6991263843207293e-01  4.9315955264340877e-01  5.1962684901169609e-01  5.4876381080251468e-01  5.7979321472335577e-01  6.1175259194591003e-01  6.4352894943125183e-01  6.7343521589616473e-01  7.0080587212549394e-01  7.2388191364065457e-01  7.4165707266106617e-01  7.5319756169224239e-01  7.5701645410315055e-01  7.5458376461802634e-01  7.4494093015397778e-01  7.2880002387910059e-01  7.0743695632278891e-01  6.8234841335430330e-01  6.5440441965895613e-01  6.2488944672094626e-01  5.9563263310477599e-01  5.6728792885896173e-01  5.4100576304836345e-01  5.1744456385210602e-01  4.9718557636886412e-01  4.8038034486461445e-01  4.6717898842154393e-01  4.5738494132181040e-01  4.5069879765023624e-01  4.4669862710095770e-01  4.4480444769493199e-01  4.4431088320690931e-01  4.4389551839592145e-01  4.4314699755985276e-01  4.4186086237183103e-01  4.3988800845418302e-01  4.3709036341175689e-01  4.3327459251916633e-01  4.2833642614878309e-01  4.2210918808151621e-01  4.1433710865700879e-01  4.0510924217397859e-01  3.9369224103576911e-01  3.8073356348873277e-01  3.6542718452615586e-01  3.4805762919589955e-01  3.2869524711535963e-01  3.0717998471179137e-01  2.8414792083161766e-01  2.5946016309431580e-01  2.3402058728343575e-01  2.0776158925882235e-01  1.8166680092762555e-01  1.5613111616559042e-01  1.3138158188679103e-01  1.0829998100776904e-01  8.7164189168330394e-02  6.8084739344299372e-02  5.1653465313262509e-02  3.7159781037859385e-02  2.5817634249258540e-02  1.7180776018998662e-02  1.1124150624856607e-02  6.8840405356308722e-03  5.4978635886311902e-03  4.9773153358652136e-03  7.1301828642380436e-03  9.9572616158658568e-03  1.3462633923374526e-02  1.8320328696188798e-02  2.2594729032150696e-02  2.7116719923458248e-02  3.1463492976081010e-02  3.4760554215341417e-02  3.7500252007172948e-02  3.9122457311130059e-02  3.9460104839100431e-02  3.8672142511279539e-02  3.6233703309810961e-02  3.2468735883964733e-02  2.7171177297300959e-02  2.0444766655788229e-02  1.2279939748555187e-02  2.6339379139969821e-03  -8.0094715671442558e-03  -1.8788740248401270e-02  -2.9812362148121874e-02  -4.0929213549981962e-02  -4.9961908434015427e-02  -5.7715904146590370e-02  -6.2719896835791086e-02  -6.5103978446562238e-02  -6.3995588514343116e-02  -5.9975430810813635e-02  -5.2549462760460595e-02  -4.2177510886855125e-02  -2.9274291926387030e-02  -1.4325057446824937e-02  2.0508357496506566e-03  1.9574118312979540e-02  3.7205312283469426e-02  5.4630722216989239e-02  7.1634004635243914e-02  8.7467502126375260e-02  1.0209277751509958e-01  1.1521120752796075e-01  1.2667070801314076e-01  1.3670114860629787e-01  1.4512508356868001e-01  1.5204776428638925e-01  1.5730267936580647e-01  1.6152713941663432e-01  1.6420139702917244e-01  1.6539869519536637e-01  1.6556374272245825e-01  1.6409896551847816e-01  1.6163233803558685e-01  1.5768055250254170e-01  1.5254925344569387e-01  1.4628595787281790e-01  1.3902035355279954e-01  1.3101775130269111e-01  1.2231292986981393e-01  1.1326079900963687e-01  1.0421017322847617e-01  9.5438032183979546e-02  8.7146913425820205e-02  7.9527596331795916e-02  7.2994153419596072e-02  6.7589117534321855e-02  6.3636781729170089e-02  6.0944389900240238e-02  5.9726052955007970e-02  5.9670643339839971e-02  6.0720562487132229e-02  6.2923565126248943e-02  6.5726146326906348e-02  6.9149319203037601e-02  7.2687937162513289e-02  7.6314092319149984e-02  7.9715850715572564e-02  8.2530916592913631e-02  8.4909913100556789e-02  8.6465359962930560e-02  8.7324923877860561e-02  8.7204185825194902e-02  8.6480667677885245e-02  8.4840058531770526e-02  8.2579775702414537e-02  7.9768640097712076e-02  7.6429271404801991e-02  7.2820083244952025e-02  6.8975519472355820e-02  6.5064995753819563e-02  6.1194206060583359e-02  5.7447864539742960e-02  5.4053409713234926e-02  5.0820618904049444e-02  4.8073638337897379e-02  4.5676184020665124e-02  4.3743949800077349e-02  4.2156755409668796e-02  4.1076953117855121e-02  4.0333620658855082e-02  3.9921023599300401e-02  3.9775343214701768e-02  3.9941572573316785e-02  4.0236309735211827e-02  4.0689858359935688e-02  4.1236589012090902e-02  4.1798080182911417e-02  4.2342066431758495e-02  4.2872535471937798e-02  4.3283240633833771e-02  4.3581254627346591e-02  4.3746072961455690e-02  4.3754035985343963e-02  4.3581423368991408e-02  4.3283637486725403e-02  4.2734044458109473e-02  4.2056117059926984e-02  4.1193249850145518e-02  4.0181791999961400e-02  3.9005973491804714e-02  3.7690955731548598e-02  3.6239807376112744e-02  3.4686471154019967e-02  3.3020426469420612e-02  3.1260315292177036e-02  2.9468813059043617e-02  2.7597416747300950e-02  2.5687332698148085e-02  2.3788047683068969e-02  2.1840057766025687e-02  1.9929382498112096e-02  1.8035119686525099e-02  1.6194879825730167e-02  1.4378175561178654e-02  1.2627175439119811e-02  1.0969067151206045e-02  9.3595120997710529e-03  7.8719126246930768e-03  6.4606994873140739e-03  5.1456746996130613e-03  3.9217069303277546e-03  2.7985525787809560e-03  1.7943471004490421e-03  8.7032148368115542e-04  5.1316698574872226e-05  -6.8918132337931429e-04  -1.3282254444308928e-03  -1.8960606345311823e-03  -2.3668434076382769e-03  -2.7810757784422825e-03  -3.1238822632784565e-03  -3.4039824819104233e-03  -3.6196963569722698e-03  -3.7848090837405571e-03  -3.8992131089211823e-03  -3.9700680008372957e-03  -4.0007383188262078e-03  -3.9871813980349542e-03  -3.9451277549094280e-03  -3.8663377225468449e-03  -3.7583108868986274e-03  -3.6235166304780853e-03  -3.4603848168366386e-03  -3.2763478604428144e-03  -3.0672374710598964e-03  -2.8395567975743716e-03  -2.5865105309965685e-03  -2.3153133505539399e-03  -2.0291319147250440e-03  -1.7196601921838383e-03  -1.3915527532421348e-03  -1.0531875255499741e-03  -6.8959908109763051e-04  -3.2362220630631879e-04  6.9203595628040103e-05  4.6266807043799778e-04  8.6528102685035373e-04  1.2818293553489280e-03  1.6879083974847648e-03  2.1072615443810945e-03  2.5135790695907751e-03  2.8929269950317680e-03  3.2705255197207541e-03  3.6014944377171245e-03  3.8873474823840196e-03  4.1296539735726527e-03  3.9147531259549869e-03  0.0000000000000000e+00  0.0000000000000000e+00  0.0000000000000000e+00  0.0000000000000000e+00  0.0000000000000000e+00  0.0000000000000000e+00  0.0000000000000000e+00  0.0000000000000000e+00  0.0000000000000000e+00  0.0000000000000000e+00  0.0000000000000000e+00  0.0000000000000000e+00  0.0000000000000000e+00  0.0000000000000000e+00  0.0000000000000000e+00  0.0000000000000000e+00  0.0000000000000000e+00  0.0000000000000000e+00  0.0000000000000000e+00  0.0000000000000000e+00  0.0000000000000000e+00  0.0000000000000000e+00  0.0000000000000000e+00  0.0000000000000000e+00  0.0000000000000000e+00  0.0000000000000000e+00  0.0000000000000000e+00  0.0000000000000000e+00  0.0000000000000000e+00  0.0000000000000000e+00  0.0000000000000000e+00  0.0000000000000000e+00  0.0000000000000000e+00  0.0000000000000000e+00  0.0000000000000000e+00  0.0000000000000000e+00  0.0000000000000000e+00  0.0000000000000000e+00  0.0000000000000000e+00  0.0000000000000000e+00  3.6107423668184460e-03  3.1030873059155906e-03  2.3576969951746075e-03  1.6399614936387183e-03  8.1800947701019477e-04  -2.6021233567338465e-05  -9.1864083511776929e-04  -1.8350996318822895e-03  -2.7569799488205544e-03  -3.6924186513553497e-03  -4.6216489487536710e-03  -5.5313481285010780e-03  -6.4288095533172511e-03  -7.2679694192133229e-03  -8.0837805531400412e-03  -8.8222317956446368e-03  -9.5096066603321087e-03  -1.0109052378969545e-02  -1.0622064798253821e-02  -1.1032245321322569e-02  -1.1339532893283226e-02  -1.1515666203103243e-02  -1.1592614261779778e-02  -1.1503440440968269e-02  -1.1312951935831770e-02  -1.0978573993590887e-02  -1.0482338904662896e-02  -9.8844653313423271e-03  -9.1464808418724453e-03  -8.2700605621425869e-03  -7.2738562159119849e-03  -6.2142372534456499e-03  -5.0094527499916835e-03  -3.7600384418740342e-03  -2.4274842921530627e-03  -1.0709455761038495e-03  3.4393473141702374e-04  1.7511955934994175e-03  3.1606259039659505e-03  4.5519797753849379e-03  5.8719561141241695e-03  7.1660891529049262e-03  8.3765839757884968e-03  9.5008891839391853e-03  1.0518831875377546e-02  1.1428897471796279e-02  1.2249988452247151e-02  1.2934815099590935e-02  1.3524796585925971e-02  1.3983127356098420e-02  1.4346764584927982e-02  1.4622365977286781e-02  1.4816760509697701e-02  1.4950089735504877e-02  1.5048549745630262e-02  1.5122022966865260e-02  1.5201754805205374e-02  1.5310786768558094e-02  1.5491276281917096e-02  1.5741699480647003e-02  1.6113563671379946e-02  1.6618657559457739e-02  1.7295673447756777e-02  1.8143995164445158e-02  1.9168559491725055e-02  2.0389519734220408e-02  2.1824520487157325e-02  2.3452875247108498e-02  2.5284657247682384e-02  2.7220958391180626e-02  2.9337265821049851e-02  3.1543821782908578e-02  3.3826547505794217e-02  3.6073368565029580e-02  3.8355175717330318e-02  4.0514317074160630e-02  4.2543122898150279e-02  4.4421745907331632e-02  4.6072181906329161e-02  4.7500655995710538e-02  4.8637180619386607e-02  4.9536669004386906e-02  5.0126704713980771e-02  5.0461613054466642e-02  5.0560229233361370e-02  5.0446034782199049e-02  5.0189686284852771e-02  4.9836747168995138e-02  4.9424922576497193e-02  4.9052521475621232e-02  4.8771655805128961e-02  4.8683480676809721e-02  4.8776780880328184e-02  4.9133609787134123e-02  4.9892695191529661e-02  5.0903615728503181e-02  5.2348549177148332e-02  5.4069611087844999e-02  5.6299660877862506e-02  5.8731778031992650e-02  6.1547633675090870e-02  6.4567066425201436e-02  6.7844025079812451e-02  7.1270990243340285e-02  7.4781372036133373e-02  7.8400150628445353e-02  8.2057754424533252e-02  8.5629164656381915e-02  8.9176795028986178e-02  9.2624555230259448e-02  9.6006857373113250e-02  9.9270580791276347e-02  1.0239670846709995e-01  1.0537693556380764e-01  1.0823442445542336e-01  1.1090810971225382e-01  1.1334747658038891e-01  1.1556199873769822e-01  1.1747519552007306e-01  1.1892322558552763e-01  1.1990202976936452e-01  1.2025576639592911e-01  1.1971436511945838e-01  1.1859956889241371e-01  1.1602387679760300e-01  1.1260088988585330e-01  1.0786390520060422e-01  1.0205164585233255e-01  9.4827253380421139e-02  8.6997467935426287e-02  7.7946518226121864e-02  6.8588272846921802e-02  5.9080244668898586e-02  4.9862207570503796e-02  4.1076533564226615e-02  3.4098168392220948e-02  2.8287925505700695e-02  2.4777475022680778e-02  2.3621447862489400e-02  2.5067138625196009e-02  2.9520973158199047e-02  3.6299709269187228e-02  4.6562442778947229e-02  5.8498071202557712e-02  7.2686173059206799e-02  8.8978762542474998e-02  1.0552675196133164e-01  1.2255335957471508e-01  1.3980200374649418e-01  1.5564016688192639e-01  1.7043487954986061e-01  1.8323048697232311e-01  1.9424400068809286e-01  2.0235177716109887e-01  2.0799703229158853e-01  2.1086000202044977e-01  2.1097799676437767e-01  2.0820606458390559e-01  2.0249837763193987e-01  1.9451038340027069e-01  1.8383594338636938e-01  1.7065584810854065e-01  1.5513299557664528e-01  1.3793500690481322e-01  1.1909192985007985e-01  9.8581291009204638e-02  7.7874752399110347e-02  5.6350471735027614e-02  3.5010597171282451e-02  1.3955953578912642e-02  -6.1882650807426410e-03  -2.4781611506817590e-02  -4.2100570486920584e-02  -5.7431270644499009e-02  -7.0936712523251177e-02  -8.2355004551143821e-02  -9.1757659434599487e-02  -9.9124236006078656e-02  -1.0414424838225106e-01  -1.0774723712644106e-01  -1.0889266750198490e-01  -1.0846624776462969e-01  -1.0594236668941436e-01  -1.0176757724078196e-01  -9.5477362433210769e-02  -8.7380074213098041e-02  -7.7331271474192817e-02  -6.5103909952595046e-02  -5.1044477718727638e-02  -3.4976399662605635e-02  -1.7112447559858582e-02  2.4902002133519912e-03  2.3951547634619381e-02  4.6478208445600272e-02  7.0845201249866846e-02  9.5601563283092619e-02  1.2174589977162788e-01  1.4763625315260301e-01  1.7391163843845833e-01  1.9950179014101291e-01  2.2457045152650407e-01  2.4824103826462623e-01  2.7050577619552646e-01  2.9129055734598247e-01  3.0957179150155983e-01  3.2638484885212288e-01  3.4102048773363819e-01  3.5339002227340355e-01  3.6393771081253468e-01  3.7269439510659191e-01  3.7997047487203928e-01  3.8567652690546600e-01  3.9030094555977124e-01  3.9363597860440952e-01  3.9635406324886496e-01  3.9822112576512830e-01  3.9958235498648503e-01  4.0049336328088225e-01  4.0108010288447188e-01  -1.0564029672020971e+00  -1.0008942505007714e+00  -6.9624151756439023e-01  -1.5840804945880080e-01  5.9737291408933146e-01  1.2577132793329360e+00  1.7542390697916013e+00  1.9442974324120332e+00  1.7725730704396241e+00  1.2953640324857774e+00  6.5850847725794148e-01  -6.2830753260626773e-02  -6.3121760749957234e-01  -9.1582350829133385e-01  -1.0210450221946190e+00  -7.7571870341009208e-01  -6.5603689845739421e-01  -5.7625722906059096e-01  -5.2738245898751690e-01  -4.8850504892603686e-01  -4.5432655779888043e-01  -4.3790921401590549e-01  -4.4630610968939788e-01  -4.6328140358618497e-01  -4.7201315363848301e-01  -4.6687158270345325e-01  -4.7261169595047919e-01  -5.1402270291142416e-01  -6.0569174833856709e-01  -7.4116746967198177e-01  -1.5870061900930002e-01  1.5650442261446379e-02  4.5946573153405154e-02  6.1614751220694319e-02  -5.8049181178202944e-03  6.2461670276460032e-02  4.6834112594578682e-02  1.1691689634544307e-01  -2.1551538241237496e-03  2.5672687756687025e-02  5.5989455774985968e-03  1.6446354633329310e-03  3.1454063572380883e-02  -8.3625505841409750e-03  4.3519485860252283e-02  4.4388325420593622e-02  -6.0936341068101607e-01  2.5902541813695018e-01  5.4537528649075212e-02  1.0633652141949071e-01  1.0587175750511327e-01  -4.3894168116354021e-02  8.2677994290740256e-02  1.4782796065495682e-01  -1.1354011242560103e-01  1.0132268945054325e-01  4.6606080533728639e-02  -4.7338206572908057e-03  1.5704548114870969e-02  4.5732876320308175e-02  -6.7773807617705550e-03  1.2925018747808863e-02  -2.1275869669662162e-02  7.1852285268412114e-02  2.3316264514790814e-02  4.5347230498032287e-01  -3.5677157237549387e-03  5.0020434519331181e-01  7.5346774842665415e-02  -3.6272609245554649e-03  -3.7869752760743308e-02  1.4627526889182826e-02  -3.7314941162989381e-03  6.3636446256915752e-02  -2.8403715325158629e-02  -1.7743721001745458e-01  -1.4756742486914420e-01  1.0920997068538070e-01  2.1415220099075644e-01  3.4708911755682595e-02  1.2216784187250079e-03  1.5668367081337220e-01  4.1138411364686732e-02  -2.4912439320581682e-03  -6.4569285837239621e-01  -1.2527130496532682e-01  -1.7302790138371306e-02  8.0152162756725862e-02  1.0653492090805182e-01  -1.2511178161171845e-02  1.6650144464333652e-01  4.9336247498875288e-02  -4.8563103176840370e-03  3.6667277973925459e-02  1.9606660901773931e-02  8.2734722245307486e-03  8.7558594036074455e-01  2.0308687879706511e-01  2.5940678894661867e-02  1.8526084796566592e-02  2.9467942223714520e-03  -1.5584951062044699e-03  4.1999439190560019e-02  -3.0184110075244766e-03  8.4664904690968179e-01  -1.5827768481912721e-03  1.8474452121216328e-01  6.8922986141787254e-02  3.2444429189262972e-03  9.2955284484916287e-02  2.0678726277648371e-02  4.6970276001345498e-02  8.5626947210832166e-02  5.3761987162919175e-02  5.6890332704318980e-02  -1.6001063734313720e-01  5.5132402439475890e-02  3.3320302592637838e-02  3.2308589814425172e-02  -8.2883161812758680e-03  4.7185725642890121e-02  3.8139277762057798e-02  5.1540060939033551e-02  -9.3349808253050635e-03  9.3964729518798390e-02  4.4954802785139934e-02  -7.8934323220521962e-01  5.0623514253929219e-02  2.2521973135981037e-03  2.2526430756343332e-01  1.2752630459374095e-02  1.0312961341715204e-01  -4.0795548638905867e-02  9.1370606027110390e-02  -5.2404903832014893e-01  1.4412049230869436e-02  -1.5465248356102779e-01  4.4747047694009383e-03  -4.0956509202252239e-01  1.3997640163492622e-01  1.0842046323756965e-01  6.3446391740173871e-02  1.0621941071156886e-01  -4.6972045897945795e-03  3.7475431143356955e-02  1.1299208771728175e-01  -5.6993342050692244e-02  8.2363242723156552e-02  -4.3819278068229200e-03  -2.1598583014696038e-03  -2.5633168674235191e-01  1.8958014135492693e-01  1.7535494689870565e-01  1.1202532286732685e-01  1.3103873977040087e-01  1.1341690009182104e-02  1.5001520007489295e-02  8.7915521045700121e-02  1.2003069295313222e-02  -2.6775077360642438e-03  5.4955493525638721e-02  1.0721184988499347e-02  4.3360934734509235e-02  1.6327335126706710e-01  4.0947011821720036e-01  -3.2712248186145598e-02  -2.0931391796714977e-03  1.7698465106776015e-02  -3.8578050348200832e-03  4.5368051308962265e-01  3.9864797061956746e-02  -3.4325444124383214e-03  3.9498059037946398e-02  6.9793683902002357e-02  7.1717664432176698e-02  6.6993167052724914e-02  5.0016078589458751e-02  -9.9257493274479205e-03  -2.8713004105427593e-03  4.5121014577021591e-02  4.6520694147729157e-02  3.3615523154115889e-01  1.4919111991947710e-02  2.6156725338245635e-02  -4.3058021956049047e-03  1.6837226500863244e-02  -4.5870610131985706e-03  5.4193434923816355e-02  -1.8548556219270004e-01  3.5129486470233739e-04  5.8865812802152406e-01  -3.2341336268982795e-01  -5.4114333187752746e-03  1.9223938735828821e-02  4.7286974280454627e-02  2.9007993650703234e-01  3.5213878989763192e-02  -6.4847501840426449e-03  3.7225492747044353e-01  6.1285602879805098e-02  7.0285439381406009e-02  -4.0185979625734884e-02  8.2018591639769541e-03  -2.8534477944972040e-03  -3.8726531680778986e-03  4.7424735073911969e-02  7.6627366461729396e-01  6.0279071587065891e-01  2.6740109369893495e-03  3.2076944555997694e-03  8.3593368397694018e-02  -2.5697307115936491e-01  -2.4336648761649188e-01  4.4425068558435553e-02  -4.4199176684891857e-03  3.4143361139918414e-02  7.2015908654485969e-02  -1.1947627826827633e-02  -2.6761149529801931e-01  1.6698467172623961e-04  1.2038560040156075e-02  1.5829081674073504e-02  6.7844287823468602e-02  5.6580411798200963e-03  1.0885554793943719e-01  2.0115798829942961e-03  3.2655499898757406e-02  -6.3472128121034560e-02  5.2467956954533025e-02  -4.7653787801691924e-02  -5.3745493964097966e-03  3.5675799067752346e-02  1.3305522179180118e-01  9.7123368429686455e-02  -4.9382090464986338e-03  8.8292228829290609e-03  7.8429389406689115e-02  1.2639097782102138e+00  4.1667386178328540e-02  6.9185678392784208e-02  5.5942161767510205e-02  -5.3905056256914816e-02  8.3178970269572672e-01  1.4347973842453596e-02  1.0137037563445041e-01  6.6607995133037987e-02  -2.0065406808807477e-02  -1.0129055755663632e-02  -6.9921289851987152e-04  -4.7101763754845557e-03  4.2160036757493351e-02  8.1941643128824904e-01  9.3427362139864203e-02  -3.7747794065266632e-01  1.1861246117134958e-01  4.9065808110550391e-02  -4.5519594488533624e-04  -3.8384059457236511e-02  9.8616984870600541e-02  2.1972077473129228e-01  2.1990382282990542e-01  -2.6788836951420242e-03  8.3070942494188841e-03  2.5393547711029191e-01  1.4856100573270295e-01  1.3792454405893484e-01  -7.4300289419466849e-04  8.1103958335344103e-02  8.1336543892495353e-02  1.7244440459476280e-02  2.7725558991763957e-02  -1.4089078478486144e-01  1.6384548359334034e-01  7.6173976266090870e-04  2.3613710729403822e-02  -1.1422693508702213e-02  1.3029435976536145e-03  7.9699137924699598e-02  3.7841958681050072e-02  1.9883738381598398e-01  4.1679809360341907e-02  -5.2067704791315805e-01  3.9714314122077279e-02  -1.0936085700926661e-01  5.5883427571287364e-02  -2.1650498653409049e-03  1.6495336139938169e-01  -2.6862312490077853e-02  9.8610601236711892e-02  -2.6185157960010358e-01  1.8221587846026142e-02  9.2715629829203977e-02  -4.1444022092073807e-01  2.4472146598974759e-02  1.1014322691373263e-01  2.3604914616719298e-02  -6.8918452032440593e-03  -8.12152051157