<?xml version="1.0"?>
<VTKFile type="UnstructuredGrid"  version="0.1"  >
<UnstructuredGrid>
<Piece  NumberOfPoints="12123" NumberOfCells="23692">
<Points>
<DataArray  type="Float64"  NumberOfComponents="3"  format="ascii">0 0 0  0 0.41 0  2.2 0 0  2.2 0.41 0  0.2 0.15 0  0.2 0.25 0  0 0.4000000000000008 0  0 0.3900000000000259 0  0 0.3800000000000606 0  0 0.3700000000000953 0  0 0.3600000000001082 0  0 0.3500000000001241 0  0 0.3400000000001558 0  0 0.3300000000001905 0  0 0.3200000000002133 0  0 0.3100000000002381 0  0 0.3000000000002728 0  0 0.2900000000003075 0  0 0.2800000000003204 0  0 0.2700000000003551 0  0 0.2600000000003897 0  0 0.2500000000004243 0  0 0.2400000000004419 0  0 0.2300000000004503 0  0 0.2200000000004849 0  0 0.2100000000005195 0  0 0.2000000000005203 0  0 0.1900000000004874 0  0 0.1800000000004544 0  0 0.1700000000004476 0  0 0.1600000000004316 0  0 0.1500000000003986 0  0 0.1400000000003795 0  0 0.1300000000003759 0  0 0.1200000000003428 0  0 0.1100000000003098 0  0 0.1000000000002768 0  0 0.09000000000024383 0  0 0.08000000000021068 0  0 0.07000000000020096 0  0 0.0600000000001879 0  0 0.05000000000015475 0  0 0.04000000000012166 0  0 0.03000000000008857 0  0 0.02000000000005536 0  0 0.01000000000002221 0  0.009999999999981288 0 0  0.01999999999996251 0 0  0.02999999999994353 0 0  0.0399999999999241 0 0  0.04999999999990434 0 0  0.05999999999988457 0 0  0.06999999999986481 0 0  0.07999999999984503 0 0  0.08999999999982462 0 0  0.09999999999980327 0 0  0.1099999999997819 0 0  0.1199999999997606 0 0  0.1299999999997423 0 0  0.1399999999997245 0 0  0.1499999999997079 0 0  0.1599999999996929 0 0  0.1699999999996795 0 0  0.179999999999666 0 0  0.1899999999996523 0 0  0.1999999999996356 0 0  0.209999999999619 0 0  0.2199999999996025 0 0  0.2299999999995879 0 0  0.2399999999995744 0 0  0.249999999999561 0 0  0.2599999999995468 0 0  0.2699999999995302 0 0  0.2799999999995105 0 0  0.2899999999994876 0 0  0.2999999999994596 0 0  0.3099999999994304 0 0  0.3199999999994012 0 0  0.3299999999993699 0 0  0.3399999999993343 0 0  0.3499999999992988 0 0  0.3599999999992632 0 0  0.3699999999992334 0 0  0.3799999999992042 0 0  0.3899999999991749 0 0  0.3999999999991457 0 0  0.4099999999991165 0 0  0.4199999999990872 0 0  0.429999999999058 0 0  0.4399999999990288 0 0  0.4499999999989995 0 0  0.4599999999989703 0 0  0.4699999999989373 0 0  0.4799999999989018 0 0  0.4899999999988663 0 0  0.4999999999988318 0 0  0.5099999999988025 0 0  0.5199999999987733 0 0  0.529999999998744 0 0  0.5399999999987057 0 0  0.5499999999986639 0 0  0.559999999998622 0 0  0.5699999999985838 0 0  0.5799999999985546 0 0  0.5899999999985253 0 0  0.5999999999984962 0 0  0.6099999999984668 0 0  0.6199999999984376 0 0  0.6299999999984084 0 0  0.6399999999983792 0 0  0.6499999999983499 0 0  0.6599999999983207 0 0  0.6699999999982915 0 0  0.6799999999982622 0 0  0.6899999999982329 0 0  0.6999999999982038 0 0  0.7099999999981744 0 0  0.7199999999981452 0 0  0.7299999999981162 0 0  0.7399999999980867 0 0  0.7499999999980577 0 0  0.7599999999980284 0 0  0.769999999997999 0 0  0.7799999999979699 0 0  0.7899999999979407 0 0  0.7999999999979114 0 0  0.8099999999978793 0 0  0.8199999999978375 0 0  0.8299999999977956 0 0  0.8399999999977538 0 0  0.8499999999977218 0 0  0.8599999999976925 0 0  0.8699999999976633 0 0  0.8799999999976341 0 0  0.8899999999976047 0 0  0.8999999999975756 0 0  0.9099999999975463 0 0  0.9199999999975172 0 0  0.9299999999974878 0 0  0.9399999999974586 0 0  0.9499999999974295 0 0  0.9599999999974002 0 0  0.969999999997371 0 0  0.9799999999973418 0 0  0.9899999999973124 0 0  0.9999999999972872 0 0  1.009999999997271 0 0  1.019999999997246 0 0  1.029999999997217 0 0  1.039999999997188 0 0  1.049999999997163 0 0  1.059999999997159 0 0  1.069999999997144 0 0  1.079999999997114 0 0  1.089999999997085 0 0  1.099999999997056 0 0  1.109999999997077 0 0  1.119999999997098 0 0  1.12999999999712 0 0  1.139999999997141 0 0  1.149999999997162 0 0  1.159999999997205 0 0  1.169999999997248 0 0  1.179999999997269 0 0  1.18999999999729 0 0  1.199999999997312 0 0  1.209999999997333 0 0  1.219999999997354 0 0  1.229999999997375 0 0  1.239999999997403 0 0  1.249999999997449 0 0  1.259999999997482 0 0  1.269999999997503 0 0  1.279999999997525 0 0  1.289999999997546 0 0  1.299999999997567 0 0  1.309999999997589 0 0  1.31999999999761 0 0  1.329999999997648 0 0  1.339999999997694 0 0  1.349999999997717 0 0  1.359999999997738 0 0  1.369999999997759 0 0  1.379999999997781 0 0  1.389999999997802 0 0  1.399999999997823 0 0  1.409999999997846 0 0  1.419999999997893 0 0  1.42999999999793 0 0  1.439999999997952 0 0  1.449999999997973 0 0  1.459999999997994 0 0  1.469999999998015 0 0  1.479999999998037 0 0  1.489999999998058 0 0  1.499999999998091 0 0  1.509999999998137 0 0  1.519999999998165 0 0  1.529999999998186 0 0  1.539999999998207 0 0  1.549999999998229 0 0  1.55999999999825 0 0  1.569999999998271 0 0  1.579999999998293 0 0  1.589999999998336 0 0  1.599999999998378 0 0  1.6099999999984 0 0  1.619999999998421 0 0  1.629999999998442 0 0  1.639999999998464 0 0  1.649999999998485 0 0  1.659999999998506 0 0  1.669999999998528 0 0  1.679999999998549 0 0  1.68999999999857 0 0  1.699999999998592 0 0  1.709999999998634 0 0  1.719999999998677 0 0  1.729999999998699 0 0  1.73999999999872 0 0  1.749999999998741 0 0  1.759999999998762 0 0  1.769999999998784 0 0  1.779999999998805 0 0  1.789999999998833 0 0  1.799999999998879 0 0  1.809999999998912 0 0  1.819999999998933 0 0  1.829999999998954 0 0  1.839999999998976 0 0  1.849999999998997 0 0  1.859999999999018 0 0  1.86999999999904 0 0  1.879999999999078 0 0  1.889999999999124 0 0  1.899999999999147 0 0  1.909999999999168 0 0  1.919999999999189 0 0  1.929999999999211 0 0  1.939999999999232 0 0  1.949999999999253 0 0  1.959999999999276 0 0  1.969999999999323 0 0  1.97999999999936 0 0  1.989999999999381 0 0  1.999999999999387 0 0  2.009999999999383 0 0  2.019999999999379 0 0  2.029999999999375 0 0  2.039999999999371 0 0  2.049999999999391 0 0  2.059999999999437 0 0  2.069999999999521 0 0  2.079999999999617 0 0  2.089999999999663 0 0  2.099999999999694 0 0  2.109999999999689 0 0  2.119999999999686 0 0  2.129999999999681 0 0  2.139999999999722 0 0  2.149999999999776 0 0  2.159999999999873 0 0  2.169999999999948 0 0  2.179999999999994 0 0  2.190000000000004 0 0  2.2 0.009999999999981952 0  2.2 0.01999999999996097 0  2.2 0.02999999999994221 0  2.2 0.03999999999992531 0  2.2 0.04999999999991126 0  2.2 0.05999999999988534 0  2.2 0.06999999999985251 0  2.2 0.07999999999982024 0  2.2 0.08999999999980195 0  2.2 0.0999999999997695 0  2.2 0.1099999999997346 0  2.2 0.1199999999997104 0  2.2 0.1299999999996865 0  2.2 0.1399999999996516 0  2.2 0.1499999999996167 0  2.2 0.1599999999995818 0  2.2 0.169999999999564 0  2.2 0.1799999999995553 0  2.2 0.1899999999995205 0  2.2 0.1999999999994856 0  2.2 0.2099999999994845 0  2.2 0.2199999999995173 0  2.2 0.2299999999995501 0  2.2 0.2399999999995566 0  2.2 0.2499999999995723 0  2.2 0.259999999999605 0  2.2 0.2699999999996239 0  2.2 0.2799999999996273 0  2.2 0.2899999999996601 0  2.2 0.2999999999996928 0  2.2 0.3099999999997256 0  2.2 0.3199999999997584 0  2.2 0.3299999999997912 0  2.2 0.3399999999998008 0  2.2 0.3499999999998136 0  2.2 0.3599999999998464 0  2.2 0.3699999999998793 0  2.2 0.3799999999999122 0  2.2 0.3899999999999451 0  2.2 0.3999999999999779 0  2.190000000000005 0.41 0  2.180000000000009 0.41 0  2.170000000000015 0.41 0  2.160000000000019 0.41 0  2.150000000000024 0.41 0  2.140000000000029 0.41 0  2.130000000000033 0.41 0  2.120000000000038 0.41 0  2.110000000000043 0.41 0  2.100000000000048 0.41 0  2.090000000000087 0.41 0  2.080000000000142 0.41 0  2.070000000000197 0.41 0  2.06000000000024 0.41 0  2.050000000000245 0.41 0  2.040000000000249 0.41 0  2.030000000000254 0.41 0  2.020000000000259 0.41 0  2.010000000000264 0.41 0  2.000000000000268 0.41 0  1.990000000000273 0.41 0  1.980000000000278 0.41 0  1.970000000000283 0.41 0  1.960000000000287 0.41 0  1.950000000000292 0.41 0  1.940000000000302 0.41 0  1.930000000000332 0.41 0  1.920000000000362 0.41 0  1.910000000000392 0.41 0  1.900000000000422 0.41 0  1.890000000000452 0.41 0  1.880000000000482 0.41 0  1.870000000000503 0.41 0  1.860000000000508 0.41 0  1.850000000000529 0.41 0  1.840000000000559 0.41 0  1.830000000000588 0.41 0  1.820000000000618 0.41 0  1.810000000000648 0.41 0  1.800000000000678 0.41 0  1.790000000000708 0.41 0  1.780000000000719 0.41 0  1.770000000000725 0.41 0  1.760000000000755 0.41 0  1.750000000000785 0.41 0  1.740000000000815 0.41 0  1.730000000000845 0.41 0  1.720000000000875 0.41 0  1.710000000000905 0.41 0  1.700000000000931 0.41 0  1.690000000000936 0.41 0  1.680000000000951 0.41 0  1.670000000000981 0.41 0  1.660000000001048 0.41 0  1.650000000001128 0.41 0  1.640000000001208 0.41 0  1.630000000001275 0.41 0  1.620000000001305 0.41 0  1.610000000001321 0.41 0  1.600000000001325 0.41 0  1.590000000001351 0.41 0  1.580000000001384 0.41 0  1.57000000000144 0.41 0  1.560000000001495 0.41 0  1.55000000000155 0.41 0  1.540000000001588 0.41 0  1.530000000001618 0.41 0  1.520000000001623 0.41 0  1.510000000001634 0.41 0  1.500000000001664 0.41 0  1.490000000001708 0.41 0  1.480000000001763 0.41 0  1.470000000001818 0.41 0  1.460000000001871 0.41 0  1.450000000001901 0.41 0  1.440000000001922 0.41 0  1.430000000001926 0.41 0  1.420000000001947 0.41 0  1.410000000001977 0.41 0  1.400000000002031 0.41 0  1.390000000002086 0.41 0  1.380000000002141 0.41 0  1.370000000002184 0.41 0  1.360000000002214 0.41 0  1.350000000002224 0.41 0  1.340000000002231 0.41 0  1.33000000000226 0.41 0  1.320000000002299 0.41 0  1.310000000002354 0.41 0  1.300000000002394 0.41 0  1.290000000002424 0.41 0  1.280000000002431 0.41 0  1.270000000002435 0.41 0  1.26000000000244 0.41 0  1.250000000002457 0.41 0  1.240000000002487 0.41 0  1.230000000002536 0.41 0  1.22000000000259 0.41 0  1.21000000000262 0.41 0  1.200
[...]
<PointData  Scalars="p"> 
<DataArray  type="Float64"  Name="p"  format="ascii">4.0058198953791607e-01  3.6890883053063905e-01  0.0000000000000000e+00  0.0000000000000000e+00  -8.8469098208108776e-01  -9.2373399611202012e-01  3.6878973941380633e-01  3.6919364270424221e-01  3.7090378132511431e-01  3.7463581530736328e-01  3.8099757692176239e-01  3.9028244203379064e-01  4.0305011802775437e-01  4.1936339177589033e-01  4.3937235573530742e-01  4.6288818342552368e-01  4.8954646174063104e-01  5.1877323937327358e-01  5.4975945702243467e-01  5.8154811577438248e-01  6.1299304292844170e-01  6.4239984692982477e-01  6.6912691730493190e-01  6.9140835225330732e-01  7.0826012828387597e-01  7.1877147745297965e-01  7.2148541444048586e-01  7.1791476393801756e-01  7.0712528314874468e-01  6.8986639959539764e-01  6.6744866862025243e-01  6.4138561304933506e-01  6.1256976387201423e-01  5.8230028298981484e-01  5.5241394038024583e-01  5.2357005644538435e-01  4.9691208720946178e-01  4.7309629571566564e-01  4.5269757174452080e-01  4.3585180229411297e-01  4.2269421806386376e-01  4.1300824820698512e-01  4.0646890411506420e-01  4.0262519979212341e-01  4.0086683976838744e-01  4.0045659580304727e-01  4.0004363605485715e-01  3.9939041217854754e-01  3.9831364783681272e-01  3.9666934218079630e-01  3.9431605974641154e-01  3.9107454652295659e-01  3.8677144871154423e-01  3.8127466389011117e-01  3.7422425501066381e-01  3.6569104282110315e-01  3.5487470708165092e-01  3.4238705248381690e-01  3.2724154823853574e-01  3.0978638825021748e-01  2.8988832935396563e-01  2.6737187688357750e-01  2.4274894085396306e-01  2.1580280730774393e-01  1.8735819612371163e-01  1.5718978975821093e-01  1.2637548363684359e-01  9.4946065965771487e-02  6.3415940342651606e-02  3.2365580151634460e-02  2.3150797140506006e-03  -2.7182266123354521e-02  -5.4705225392963797e-02  -8.1481249769638997e-02  -1.0555752218065380e-01  -1.2815864386917439e-01  -1.4901664725075761e-01  -1.6756541464216479e-01  -1.8433851916253244e-01  -1.9907231917641591e-01  -2.1154894068309055e-01  -2.2230195712939704e-01  -2.3101924096305956e-01  -2.3773172603378623e-01  -2.4308833239765587e-01  -2.4623955468332581e-01  -2.4809570138374917e-01  -2.4833904694805212e-01  -2.4715220363072732e-01  -2.4480616757931770e-01  -2.4104127856405594e-01  -2.3649285395234887e-01  -2.3078013746290957e-01  -2.2441063196538524e-01  -2.1721779439293520e-01  -2.0950083407021622e-01  -2.0117194049594891e-01  -1.9240224862917552e-01  -1.8323865024385497e-01  -1.7390369908403427e-01  -1.6433207822230589e-01  -1.5454538157631401e-01  -1.4495398912170135e-01  -1.3532317264021654e-01  -1.2589224016388928e-01  -1.1671911945597015e-01  -1.0792442154186009e-01  -9.9482487867400909e-02  -9.1706926113931178e-02  -8.4470249898471642e-02  -7.7955196671956342e-02  -7.2165685438739371e-02  -6.7231221334315278e-02  -6.3085195738040514e-02  -5.9793969039643208e-02  -5.7454621658654219e-02  -5.5909121769908310e-02  -5.5157518220971952e-02  -5.5157110740237159e-02  -5.5778481750459859e-02  -5.7079709715969484e-02  -5.8782573475364766e-02  -6.0971000026385766e-02  -6.3299656198563689e-02  -6.5937919647165305e-02  -6.8668027672168369e-02  -7.1277682896377356e-02  -7.3808280362333806e-02  -7.6218573530071901e-02  -7.8214159610835721e-02  -8.0023760545193778e-02  -8.1207424301601119e-02  -8.2052034188685952e-02  -8.2324840391292814e-02  -8.2113796681632684e-02  -8.1330518417825820e-02  -7.9885717740601214e-02  -7.7975338253661652e-02  -7.5504432038924249e-02  -7.2483036584997912e-02  -6.8904056308198514e-02  -6.4888415605242292e-02  -6.0479077052150026e-02  -5.5664486960295946e-02  -5.0545231551025194e-02  -4.5138669095393706e-02  -3.9524807316937069e-02  -3.3697324147582516e-02  -2.7829516737781276e-02  -2.1868370801592801e-02  -1.5890237690614342e-02  -9.9108736561687848e-03  -4.0608934531449984e-03  1.7578961768501967e-03  7.4633171064965032e-03  1.2917854601175923e-02  1.8313705551905854e-02  2.3471848010992752e-02  2.8412227756657971e-02  3.3172483836318101e-02  3.7745698513837724e-02  4.2016666982516555e-02  4.6149704644114664e-02  5.0023880759996156e-02  5.3679243780534736e-02  5.7148827693427426e-02  6.0374871560838844e-02  6.3418939556245307e-02  6.6268249755949998e-02  6.8943828426569209e-02  7.1353047219184493e-02  7.3710332171138648e-02  7.5779784185960694e-02  7.7739957355607125e-02  7.9525387287590774e-02  8.1174253348335626e-02  8.2599039218724912e-02  8.3934273213621235e-02  8.5159285900388418e-02  8.6176970805331696e-02  8.7082602993843100e-02  8.7896161411348206e-02  8.8499230514304500e-02  8.9056215197209646e-02  8.9456126315264992e-02  8.9727537924195314e-02  8.9956048589091883e-02  9.0012487219676932e-02  8.9980612216804409e-02  8.9859874930605307e-02  8.9633902372023080e-02  8.9334323902026003e-02  8.8952780264965794e-02  8.8460200665813546e-02  8.7923642884226202e-02  8.7324421905637523e-02  8.6639034046797334e-02  8.5909523221160619e-02  8.5128499065627833e-02  8.4299363256534338e-02  8.3429891171620585e-02  8.2523249622085612e-02  8.1604719017469421e-02  8.0635673881491010e-02  7.9654904321022263e-02  7.8663445246157745e-02  7.7637103391768866e-02  7.6624469724782263e-02  7.5589196899246078e-02  7.4551552099269267e-02  7.3503037547798189e-02  7.2468212835907098e-02  7.1423210213427415e-02  7.0377442616517696e-02  6.9340359300077925e-02  6.8289442660703997e-02  6.7255885262285195e-02  6.6218648742552857e-02  6.5191051819900772e-02  6.4157792258524984e-02  6.3121579349911569e-02  6.2099830060017167e-02  6.1072950227294240e-02  6.0057543447628717e-02  5.9031115814094072e-02  5.8017332071343207e-02  5.6989619107721282e-02  5.5986104891680807e-02  5.4969237312877381e-02  5.3957889249618959e-02  5.2939344110194672e-02  5.1932464329735674e-02  5.0925380640533924e-02  4.9921850545544814e-02  4.8915368059555528e-02  4.7916816748913890e-02  4.6922365428820917e-02  4.5921587399238295e-02  4.4934251948518703e-02  4.3950899674736262e-02  4.2972598338945865e-02  4.2001522911837917e-02  4.1036210457372567e-02  4.0074827605148279e-02  3.9132674496542862e-02  3.8197548000149920e-02  3.7266408834367673e-02  3.6359500189529118e-02  3.5466901519505968e-02  3.4583376377065843e-02  3.3731408578276251e-02  3.2885515617424199e-02  3.2080006088199067e-02  3.1286286197748973e-02  3.0525388367063817e-02  2.9803131525379677e-02  2.9103649960158910e-02  2.8457070095721990e-02  2.7835302844511425e-02  2.7242449471566843e-02  2.6703069319129129e-02  2.6160136571166982e-02  2.5631418667576965e-02  2.5093410989802441e-02  2.2892742295493682e-02  0.0000000000000000e+00  0.0000000000000000e+00  0.0000000000000000e+00  0.0000000000000000e+00  0.0000000000000000e+00  0.0000000000000000e+00  0.0000000000000000e+00  0.0000000000000000e+00  0.0000000000000000e+00  0.0000000000000000e+00  0.0000000000000000e+00  0.0000000000000000e+00  0.0000000000000000e+00  0.0000000000000000e+00  0.0000000000000000e+00  0.0000000000000000e+00  0.0000000000000000e+00  0.0000000000000000e+00  0.0000000000000000e+00  0.0000000000000000e+00  0.0000000000000000e+00  0.0000000000000000e+00  0.0000000000000000e+00  0.0000000000000000e+00  0.0000000000000000e+00  0.0000000000000000e+00  0.0000000000000000e+00  0.0000000000000000e+00  0.0000000000000000e+00  0.0000000000000000e+00  0.0000000000000000e+00  0.0000000000000000e+00  0.0000000000000000e+00  0.0000000000000000e+00  0.0000000000000000e+00  0.0000000000000000e+00  0.0000000000000000e+00  0.0000000000000000e+00  0.0000000000000000e+00  0.0000000000000000e+00  2.1244014719027142e-02  2.1717600676804130e-02  2.2243784024876870e-02  2.3031401449318374e-02  2.3661573214193751e-02  2.4348020326432063e-02  2.5051946768514567e-02  2.5787583628285489e-02  2.6556481554473443e-02  2.7358389851396242e-02  2.8184402008032416e-02  2.9044193886285673e-02  2.9915551907845749e-02  3.0827509668269405e-02  3.1741344153292696e-02  3.2691152420918558e-02  3.3638422941109261e-02  3.4615558044483949e-02  3.5596679891789648e-02  3.6600008201509604e-02  3.7608194077248407e-02  3.8629476683559996e-02  3.9658859582674601e-02  4.0700368809460943e-02  4.1741363197754448e-02  4.2808690317687220e-02  4.3865880524254795e-02  4.4931330741409668e-02  4.6018722057232175e-02  4.7101880969859886e-02  4.8180374867031465e-02  4.9290455478907279e-02  5.0382069825825902e-02  5.1490594174334568e-02  5.2600457562215264e-02  5.3724427999174415e-02  5.4841733263721916e-02  5.5970923975392939e-02  5.7099598751492377e-02  5.8229631334806173e-02  5.9377420171772714e-02  6.0507702017917567e-02  6.1649724796350912e-02  6.2791775060607555e-02  6.3950350646377774e-02  6.5086431753301560e-02  6.6233110276757379e-02  6.7372503742225198e-02  6.8515028168534609e-02  6.9658794841776922e-02  7.0793839539730063e-02  7.1923596805193626e-02  7.3050663450463529e-02  7.4167257973459605e-02  7.5284418740250908e-02  7.6389020640682023e-02  7.7478636621216401e-02  7.8564586479668228e-02  7.9635554105832188e-02  8.0688443687153458e-02  8.1726790165556160e-02  8.2759476082903002e-02  8.3761876434733776e-02  8.4730946564740325e-02  8.5687214752447727e-02  8.6622632524955154e-02  8.7519347865897157e-02  8.8383346229697915e-02  8.9188905926996562e-02  8.9980372066635783e-02  9.0699087539631268e-02  9.1362022194965406e-02  9.1950967723550894e-02  9.2493180270743158e-02  9.2908986968198271e-02  9.3266257603602784e-02  9.3508151356121547e-02  9.3609445804288829e-02  9.3601745776239573e-02  9.3437636442489369e-02  9.3100382464073692e-02  9.2605317194651995e-02  9.1902182782829855e-02  9.0987168388960094e-02  8.9857906536712162e-02  8.8459873981433346e-02  8.6841007129829159e-02  8.4956450691645313e-02  8.2722066867755725e-02  8.0214832499718919e-02  7.7540919224547949e-02  7.4417618241546982e-02  7.1003780358173438e-02  6.7409250301062137e-02  6.3390152415009213e-02  5.9162868950786561e-02  5.4603972871877467e-02  4.9963098559566176e-02  4.4872376760015716e-02  3.9719580257872304e-02  3.4359054396945254e-02  2.8924229184479400e-02  2.3353132314388611e-02  1.7765837411651469e-02  1.2206598785274320e-02  6.6458974795402474e-03  1.1616471265293532e-03  -4.1007112050954128e-03  -9.1849995571036715e-03  -1.4001730188583882e-02  -1.8561440874740258e-02  -2.2779713718740473e-02  -2.6645111964971775e-02  -3.0047203760819138e-02  -3.3107535176512888e-02  -3.5679378432494295e-02  -3.7851491961321967e-02  -3.9540379941270340e-02  -4.0912963153832506e-02  -4.1839701813479159e-02  -4.2451897804887367e-02  -4.2793285266271339e-02  -4.2835820632205403e-02  -4.2804017810288357e-02  -4.2642642558372509e-02  -4.2482071700327889e-02  -4.2382921364826201e-02  -4.2505832158255069e-02  -4.2778280118056018e-02  -4.3410726695673287e-02  -4.4409840968205369e-02  -4.5815254755015342e-02  -4.7680170066413841e-02  -5.0130679357977138e-02  -5.2925228276406243e-02  -5.6469213439534628e-02  -6.0411525058787989e-02  -6.4828712610616790e-02  -6.9716241657746134e-02  -7.4912636421352860e-02  -8.0491767907610312e-02  -8.6179688205432259e-02  -9.2089073300525154e-02  -9.7980958191369885e-02  -1.0373114144762663e-01  -1.0939506606759963e-01  -1.1474056997441821e-01  -1.1966379446355500e-01  -1.2421480937167252e-01  -1.2824626393766581e-01  -1.3174032639981686e-01  -1.3466544338607658e-01  -1.3711963806589683e-01  -1.3905308020309687e-01  -1.4050416443891309e-01  -1.4164679441981279e-01  -1.4245255405814833e-01  -1.4320174688124307e-01  -1.4367692136700289e-01  -1.4428556461487668e-01  -1.4506462620608687e-01  -1.4592756227860645e-01  -1.4711581561353415e-01  -1.4854245552954007e-01  -1.5040574455427111e-01  -1.5250675356795396e-01  -1.5500984986181343e-01  -1.5782849548362651e-01  -1.6087059864093545e-01  -1.6413439874627686e-01  -1.6752028629273838e-01  -1.7090559912430417e-01  -1.7424319238516825e-01  -1.7733645992005201e-01  -1.8013142633434290e-01  -1.8244262345998921e-01  -1.8423096782606316e-01  -1.8510425499802100e-01  -1.8512910314042411e-01  -1.8438284958718090e-01  -1.8197880568728941e-01  -1.7867532418222812e-01  -1.7368736827671127e-01  -1.6732035862141989e-01  -1.5929046111332823e-01  -1.4942694919330135e-01  -1.3791553732147657e-01  -1.2437494466400964e-01  -1.0908586944344836e-01  -9.1985577137642008e-02  -7.3100991009870886e-02  -5.2530104709482509e-02  -3.0197089158932076e-02  -6.8124844980982551e-03  1.8373197656045025e-02  4.3940831928638645e-02  7.0894412491961711e-02  9.7603248250677274e-02  1.2470839828430119e-01  1.5114650968096421e-01  1.7711330260019056e-01  2.0168271039872504e-01  2.2492813559557914e-01  2.4672550768574222e-01  2.6602053140626569e-01  2.8396713095165982e-01  2.9971543605569451e-01  3.1317923009614829e-01  3.2486114506180858e-01  3.3469897957038158e-01  3.4302577131896456e-01  3.4967426631364462e-01  3.5516171114326789e-01  3.5921299096865855e-01  3.6255478510412914e-01  3.6488628808736201e-01  3.6657301783641344e-01  3.6768825032467589e-01  3.6836133406583649e-01  -1.0308306339478668e+00  -9.6442979389925443e-01  -6.5766714459948783e-01  -1.2176330194282589e-01  6.1943204031577470e-01  1.2663724061047532e+00  1.7418331007994801e+00  1.9094685349639620e+00  1.7164576727686123e+00  1.2252398944188219e+00  5.8344880066338189e-01  -1.3496426302886969e-01  -6.8352303755448518e-01  -9.4021481006719820e-01  -1.0112352505166351e+00  -7.2600040743708782e-01  -5.9959021284538638e-01  -5.1864224800099112e-01  -4.7530393159348810e-01  -4.5867289107045245e-01  -4.4691236125077427e-01  -4.3496589398867980e-01  -4.2865292363138008e-01  -4.3801494152827131e-01  -4.5686892220787956e-01  -4.7687574916945585e-01  -5.0081862326219617e-01  -5.4164045289099172e-01  -6.2357927541950031e-01  -7.4664184255820598e-01  -4.4379497404132212e-01  7.2346166740429069e-02  7.9724440569278354e-02  7.6942142186055352e-03  4.5060110847142232e-02  3.1571574724973649e-02  -1.9995427595065805e-02  8.6496894817569794e-02  2.8353063368091402e-02  8.3234928622342566e-02  5.9524573888844898e-02  6.1239928366905234e-02  8.1652413621691400e-02  3.1593411621503677e-02  6.7511210985369510e-02  6.7679323766965963e-02  -3.9363193511790529e-01  -2.0852267736846142e-01  -3.6535968677058370e-02  -2.9457202319110955e-02  -1.9220386616703011e-02  -5.2431521430045691e-01  7.7878204520950602e-03  -6.8234528743813361e-02  -1.6084326231630958e-01  -7.1118113735350970e-03  8.5978075328020070e-02  5.0397626380963907e-02  7.7548927195698295e-02  8.9317016807414912e-02  4.8758234067893876e-02  7.1364815948609148e-02  -2.8866038622014889e-01  2.5563552190365088e-02  -4.5470468716979337e-02  4.2192729040374283e-01  4.0193338900414315e-02  4.5914112563192427e-01  4.7768530038948952e-02  1.6529639583614402e-02  -3.5819266411487710e-01  6.8406670464571273e-02  2.3219315632504223e-02  -5.6101845754910916e-02  -5.2294230074058541e-02  -2.0835305424803066e-01  -2.4903091415545064e-01  -4.1343726965356799e-02  -1.2314747462043384e-01  8.2715059729708856e-02  2.5014514858233639e-02  -6.7774342487863057e-02  8.3795225285321462e-02  5.4604068946338367e-02  -4.7620318842505677e-01  -1.2879497917548097e-01  7.7894707572802924e-02  -1.0263705690896009e-03  -2.1446849531706617e-02  4.0151389187813094e-02  1.2491339261059356e-01  8.6723869798854852e-02  3.5047195885688644e-02  6.9324198431422152e-02  7.8876575797282869e-02  6.4751551540517593e-02  8.4626727632731802e-01  1.6673435207727100e-01  7.8617974251632430e-02  8.5192251814523653e-02  5.6589453576620000e-02  3.3509712065712884e-02  8.6552205554954825e-02  5.7188945713398956e-02  8.0727088057380514e-01  1.3602226513984355e-02  -4.0097699048239434e-02  -2.6543647708339817e-02  6.5018601756148695e-02  -1.1005242934157215e-02  7.6220930855979252e-02  5.7622975406436856e-02  -1.7998611984630175e-01  -9.6070102558035136e-02  -4.0394995714452632e-02  -2.3030538451671204e-01  -1.9801193248244496e-02  -4.2578558154698694e-02  9.0435270105781868e-02  4.0307859073442504e-02  7.9098814741169532e-02  5.3769645652717933e-02  6.8739145039002053e-02  3.1384173777361149e-02  1.0489220908546622e-02  7.5951068287202494e-02  -4.4417588550580700e-01  4.9770239601408785e-02  -3.1086098491597747e-01  -3.6431669779069209e-01  4.9330328418208513e-03  -1.5588653412905060e-02  -5.9641671229182092e-01  2.6967836409989069e-02  -4.6758603792231662e-01  6.9051291873690815e-02  -1.9397232761316999e-01  -2.1994574428717392e-01  -4.5777210112027578e-01  -3.3542887954023992e-02  -3.5903908733724607e-02  -1.9038271066260892e-02  2.5399443885229075e-02  4.4296015992419821e-02  8.4427326851266790e-02  -8.1024615571313838e-02  -1.3654029897621900e-01  2.9442602690294292e-02  4.6192132903017304e-02  5.2834980673851110e-02  -4.0989242672278309e-01  -1.4431554606055466e-01  -1.2793245598192596e-01  -3.9932869698110739e-02  -5.1498264289298462e-02  6.8618175249652913e-02  7.4551414389135137e-02  -3.6813833845290952e-02  2.2431770736069716e-02  8.8795936529794035e-04  -1.8296809621421988e-03  6.3224225643429902e-02  8.8870890333137942e-02  -8.5137369730289694e-02  3.7689701774074769e-01  -2.3577882851679913e-01  1.1690351528770260e-02  7.6139308059191238e-02  2.6710721043538124e-02  4.1014739510300030e-01  8.4003355203205829e-02  3.5974400163510535e-02  8.0381198974957713e-02  -1.7222632428691216e-02  5.0162069132989290e-02  1.6748618133966206e-02  9.2616424948954557e-02  4.5829182232193906e-02  5.5108312981857019e-02  8.1959971640558640e-02  7.8250285470543857e-02  2.9668411756087743e-01  8.0686076272748028e-02  8.1579405379727285e-02  5.1920168029436796e-02  7.3876170843292344e-02  4.9855647232431494e-02  4.7624843126649288e-02  -2.2228397393135860e-01  2.3523271891290776e-02  5.5931174616026935e-01  -3.7108748580669854e-01  2.3699466687575922e-02  8.0674201939823970e-02  8.3495961744059960e-02  2.6486596529564643e-01  8.3394373189767251e-02  4.6522704876383658e-02  3.3355413772687997e-01  -2.3606235268101652e-02  1.8290318996533928e-02  -1.8631753689997976e-01  -7.1786826934537237e-02  3.8642319215431584e-02  5.1491144873378136e-02  8.2958784696141832e-02  7.2398905911653355e-01  5.5980702042887587e-01  5.9583262150566682e-02  2.6770852056813118e-02  1.6347984842646029e-02  -5.5534509493084872e-01  -3.1461495436680487e-01  8.9129273499440637e-02  4.3007837473575429e-03  6.0508726581258422e-02  5.7274554362196091e-02  3.6560946109770787e-02  -2.8238196878088989e-01  3.0664587872222003e-02  6.5041853939223335e-02  7.2636237867021183e-02  3.2448415205101222e-02  6.5758720904966400e-02  -2.6092274843072336e-02  1.4738327769303764e-02  8.7120394398716855e-02  -3.9090609885425665e-01  -4.5422025418148701e-02  -7.3012867041953936e-02  2.7932014295812442e-02  -2.6697058456120432e-01  -5.9298122410404892e-02  -3.0966185209300400e-02  4.0416691657184478e-02  6.9109705506366886e-02  4.9525896331017311e-03  1.2298255993129534e+00  8.2555447425159287e-02  -2.9895893845992855e-02  5.9119321785012828e-02  -1.0597178386891508e-01  7.9705251436856683e-01  6.9500989429980703e-02  -6.3962354171976377e-02  -3.7381565971857413e-02  -4.7456327182363012e-01  4.3657586876612246e-02  2.7927870920157798e-02  5.0121170335413072e-02  9.2915421601401052e-02  7.9880165287419747e-01  -2.0259153897696216e-03  -3.2678595864088150e-01  -4.2711897030918503e-02  8.6420911211662260e-02  6.0953629504730482e-02  4.6233767662316280e-02  -3.4158165263142762e-02  -1.2522421378508525e-01  -1.4034211104745714e-01  2.0577978415600030e-02  6.0762390680174534e-02  2.1776044847538678e-01  -2.8312333660035716e-01  -3.3985367681529897e-02  5.3822893039320793e-02  -3.5252444428330698e-04  4.9447949802819607e-02  -8.6997085039477950e-02  8.2569488402640973e-02  -3.7845290422223254e-01  -6.7889430869304032e-02  5.8796098580118916e-02  8.8456001575101584e-02  3.5134349420402659e-02  1.6746025520937055e-02  -3.1058445500544565e-02  -5.2100403153970472e-02  -2.6584266901552311e-01  7.6849187013729642e-02  -4.6151181255050350e-01  8.7330189877125042e-02  -2.9739043194556120e-01  4.1796495570655741e-02  3.3487122001222905e-02  -7.2189347357184658e-02  4.3727886559882474e-02  -2.3329318917101202e-02  -1.6010808033710300e-01  7.5851482623263494e-02  3.3109274793040769e-03  -4.5114945901017917e-01  -5.3210897409391875e