<?xml version="1.0"?>
<VTKFile type="UnstructuredGrid"  version="0.1"  >
<UnstructuredGrid>
<Piece  NumberOfPoints="12123" NumberOfCells="23692">
<Points>
<DataArray  type="Float64"  NumberOfComponents="3"  format="ascii">0 0 0  0 0.41 0  2.2 0 0  2.2 0.41 0  0.2 0.15 0  0.2 0.25 0  0 0.4000000000000008 0  0 0.3900000000000259 0  0 0.3800000000000606 0  0 0.3700000000000953 0  0 0.3600000000001082 0  0 0.3500000000001241 0  0 0.3400000000001558 0  0 0.3300000000001905 0  0 0.3200000000002133 0  0 0.3100000000002381 0  0 0.3000000000002728 0  0 0.2900000000003075 0  0 0.2800000000003204 0  0 0.2700000000003551 0  0 0.2600000000003897 0  0 0.2500000000004243 0  0 0.2400000000004419 0  0 0.2300000000004503 0  0 0.2200000000004849 0  0 0.2100000000005195 0  0 0.2000000000005203 0  0 0.1900000000004874 0  0 0.1800000000004544 0  0 0.1700000000004476 0  0 0.1600000000004316 0  0 0.1500000000003986 0  0 0.1400000000003795 0  0 0.1300000000003759 0  0 0.1200000000003428 0  0 0.1100000000003098 0  0 0.1000000000002768 0  0 0.09000000000024383 0  0 0.08000000000021068 0  0 0.07000000000020096 0  0 0.0600000000001879 0  0 0.05000000000015475 0  0 0.04000000000012166 0  0 0.03000000000008857 0  0 0.02000000000005536 0  0 0.01000000000002221 0  0.009999999999981288 0 0  0.01999999999996251 0 0  0.02999999999994353 0 0  0.0399999999999241 0 0  0.04999999999990434 0 0  0.05999999999988457 0 0  0.06999999999986481 0 0  0.07999999999984503 0 0  0.08999999999982462 0 0  0.09999999999980327 0 0  0.1099999999997819 0 0  0.1199999999997606 0 0  0.1299999999997423 0 0  0.1399999999997245 0 0  0.1499999999997079 0 0  0.1599999999996929 0 0  0.1699999999996795 0 0  0.179999999999666 0 0  0.1899999999996523 0 0  0.1999999999996356 0 0  0.209999999999619 0 0  0.2199999999996025 0 0  0.2299999999995879 0 0  0.2399999999995744 0 0  0.249999999999561 0 0  0.2599999999995468 0 0  0.2699999999995302 0 0  0.2799999999995105 0 0  0.2899999999994876 0 0  0.2999999999994596 0 0  0.3099999999994304 0 0  0.3199999999994012 0 0  0.3299999999993699 0 0  0.3399999999993343 0 0  0.3499999999992988 0 0  0.3599999999992632 0 0  0.3699999999992334 0 0  0.3799999999992042 0 0  0.3899999999991749 0 0  0.3999999999991457 0 0  0.4099999999991165 0 0  0.4199999999990872 0 0  0.429999999999058 0 0  0.4399999999990288 0 0  0.4499999999989995 0 0  0.4599999999989703 0 0  0.4699999999989373 0 0  0.4799999999989018 0 0  0.4899999999988663 0 0  0.4999999999988318 0 0  0.5099999999988025 0 0  0.5199999999987733 0 0  0.529999999998744 0 0  0.5399999999987057 0 0  0.5499999999986639 0 0  0.559999999998622 0 0  0.5699999999985838 0 0  0.5799999999985546 0 0  0.5899999999985253 0 0  0.5999999999984962 0 0  0.6099999999984668 0 0  0.6199999999984376 0 0  0.6299999999984084 0 0  0.6399999999983792 0 0  0.6499999999983499 0 0  0.6599999999983207 0 0  0.6699999999982915 0 0  0.6799999999982622 0 0  0.6899999999982329 0 0  0.6999999999982038 0 0  0.7099999999981744 0 0  0.7199999999981452 0 0  0.7299999999981162 0 0  0.7399999999980867 0 0  0.7499999999980577 0 0  0.7599999999980284 0 0  0.769999999997999 0 0  0.7799999999979699 0 0  0.7899999999979407 0 0  0.7999999999979114 0 0  0.8099999999978793 0 0  0.8199999999978375 0 0  0.8299999999977956 0 0  0.8399999999977538 0 0  0.8499999999977218 0 0  0.8599999999976925 0 0  0.8699999999976633 0 0  0.8799999999976341 0 0  0.8899999999976047 0 0  0.8999999999975756 0 0  0.9099999999975463 0 0  0.9199999999975172 0 0  0.9299999999974878 0 0  0.9399999999974586 0 0  0.9499999999974295 0 0  0.9599999999974002 0 0  0.969999999997371 0 0  0.9799999999973418 0 0  0.9899999999973124 0 0  0.9999999999972872 0 0  1.009999999997271 0 0  1.019999999997246 0 0  1.029999999997217 0 0  1.039999999997188 0 0  1.049999999997163 0 0  1.059999999997159 0 0  1.069999999997144 0 0  1.079999999997114 0 0  1.089999999997085 0 0  1.099999999997056 0 0  1.109999999997077 0 0  1.119999999997098 0 0  1.12999999999712 0 0  1.139999999997141 0 0  1.149999999997162 0 0  1.159999999997205 0 0  1.169999999997248 0 0  1.179999999997269 0 0  1.18999999999729 0 0  1.199999999997312 0 0  1.209999999997333 0 0  1.219999999997354 0 0  1.229999999997375 0 0  1.239999999997403 0 0  1.249999999997449 0 0  1.259999999997482 0 0  1.269999999997503 0 0  1.279999999997525 0 0  1.289999999997546 0 0  1.299999999997567 0 0  1.309999999997589 0 0  1.31999999999761 0 0  1.329999999997648 0 0  1.339999999997694 0 0  1.349999999997717 0 0  1.359999999997738 0 0  1.369999999997759 0 0  1.379999999997781 0 0  1.389999999997802 0 0  1.399999999997823 0 0  1.409999999997846 0 0  1.419999999997893 0 0  1.42999999999793 0 0  1.439999999997952 0 0  1.449999999997973 0 0  1.459999999997994 0 0  1.469999999998015 0 0  1.479999999998037 0 0  1.489999999998058 0 0  1.499999999998091 0 0  1.509999999998137 0 0  1.519999999998165 0 0  1.529999999998186 0 0  1.539999999998207 0 0  1.549999999998229 0 0  1.55999999999825 0 0  1.569999999998271 0 0  1.579999999998293 0 0  1.589999999998336 0 0  1.599999999998378 0 0  1.6099999999984 0 0  1.619999999998421 0 0  1.629999999998442 0 0  1.639999999998464 0 0  1.649999999998485 0 0  1.659999999998506 0 0  1.669999999998528 0 0  1.679999999998549 0 0  1.68999999999857 0 0  1.699999999998592 0 0  1.709999999998634 0 0  1.719999999998677 0 0  1.729999999998699 0 0  1.73999999999872 0 0  1.749999999998741 0 0  1.759999999998762 0 0  1.769999999998784 0 0  1.779999999998805 0 0  1.789999999998833 0 0  1.799999999998879 0 0  1.809999999998912 0 0  1.819999999998933 0 0  1.829999999998954 0 0  1.839999999998976 0 0  1.849999999998997 0 0  1.859999999999018 0 0  1.86999999999904 0 0  1.879999999999078 0 0  1.889999999999124 0 0  1.899999999999147 0 0  1.909999999999168 0 0  1.919999999999189 0 0  1.929999999999211 0 0  1.939999999999232 0 0  1.949999999999253 0 0  1.959999999999276 0 0  1.969999999999323 0 0  1.97999999999936 0 0  1.989999999999381 0 0  1.999999999999387 0 0  2.009999999999383 0 0  2.019999999999379 0 0  2.029999999999375 0 0  2.039999999999371 0 0  2.049999999999391 0 0  2.059999999999437 0 0  2.069999999999521 0 0  2.079999999999617 0 0  2.089999999999663 0 0  2.099999999999694 0 0  2.109999999999689 0 0  2.119999999999686 0 0  2.129999999999681 0 0  2.139999999999722 0 0  2.149999999999776 0 0  2.159999999999873 0 0  2.169999999999948 0 0  2.179999999999994 0 0  2.190000000000004 0 0  2.2 0.009999999999981952 0  2.2 0.01999999999996097 0  2.2 0.02999999999994221 0  2.2 0.03999999999992531 0  2.2 0.04999999999991126 0  2.2 0.05999999999988534 0  2.2 0.06999999999985251 0  2.2 0.07999999999982024 0  2.2 0.08999999999980195 0  2.2 0.0999999999997695 0  2.2 0.1099999999997346 0  2.2 0.1199999999997104 0  2.2 0.1299999999996865 0  2.2 0.1399999999996516 0  2.2 0.1499999999996167 0  2.2 0.1599999999995818 0  2.2 0.169999999999564 0  2.2 0.1799999999995553 0  2.2 0.1899999999995205 0  2.2 0.1999999999994856 0  2.2 0.2099999999994845 0  2.2 0.2199999999995173 0  2.2 0.2299999999995501 0  2.2 0.2399999999995566 0  2.2 0.2499999999995723 0  2.2 0.259999999999605 0  2.2 0.2699999999996239 0  2.2 0.2799999999996273 0  2.2 0.2899999999996601 0  2.2 0.2999999999996928 0  2.2 0.3099999999997256 0  2.2 0.3199999999997584 0  2.2 0.3299999999997912 0  2.2 0.3399999999998008 0  2.2 0.3499999999998136 0  2.2 0.3599999999998464 0  2.2 0.3699999999998793 0  2.2 0.3799999999999122 0  2.2 0.3899999999999451 0  2.2 0.3999999999999779 0  2.190000000000005 0.41 0  2.180000000000009 0.41 0  2.170000000000015 0.41 0  2.160000000000019 0.41 0  2.150000000000024 0.41 0  2.140000000000029 0.41 0  2.130000000000033 0.41 0  2.120000000000038 0.41 0  2.110000000000043 0.41 0  2.100000000000048 0.41 0  2.090000000000087 0.41 0  2.080000000000142 0.41 0  2.070000000000197 0.41 0  2.06000000000024 0.41 0  2.050000000000245 0.41 0  2.040000000000249 0.41 0  2.030000000000254 0.41 0  2.020000000000259 0.41 0  2.010000000000264 0.41 0  2.000000000000268 0.41 0  1.990000000000273 0.41 0  1.980000000000278 0.41 0  1.970000000000283 0.41 0  1.960000000000287 0.41 0  1.950000000000292 0.41 0  1.940000000000302 0.41 0  1.930000000000332 0.41 0  1.920000000000362 0.41 0  1.910000000000392 0.41 0  1.900000000000422 0.41 0  1.890000000000452 0.41 0  1.880000000000482 0.41 0  1.870000000000503 0.41 0  1.860000000000508 0.41 0  1.850000000000529 0.41 0  1.840000000000559 0.41 0  1.830000000000588 0.41 0  1.820000000000618 0.41 0  1.810000000000648 0.41 0  1.800000000000678 0.41 0  1.790000000000708 0.41 0  1.780000000000719 0.41 0  1.770000000000725 0.41 0  1.760000000000755 0.41 0  1.750000000000785 0.41 0  1.740000000000815 0.41 0  1.730000000000845 0.41 0  1.720000000000875 0.41 0  1.710000000000905 0.41 0  1.700000000000931 0.41 0  1.690000000000936 0.41 0  1.680000000000951 0.41 0  1.670000000000981 0.41 0  1.660000000001048 0.41 0  1.650000000001128 0.41 0  1.640000000001208 0.41 0  1.630000000001275 0.41 0  1.620000000001305 0.41 0  1.610000000001321 0.41 0  1.600000000001325 0.41 0  1.590000000001351 0.41 0  1.580000000001384 0.41 0  1.57000000000144 0.41 0  1.560000000001495 0.41 0  1.55000000000155 0.41 0  1.540000000001588 0.41 0  1.530000000001618 0.41 0  1.520000000001623 0.41 0  1.510000000001634 0.41 0  1.500000000001664 0.41 0  1.490000000001708 0.41 0  1.480000000001763 0.41 0  1.470000000001818 0.41 0  1.460000000001871 0.41 0  1.450000000001901 0.41 0  1.440000000001922 0.41 0  1.430000000001926 0.41 0  1.420000000001947 0.41 0  1.410000000001977 0.41 0  1.400000000002031 0.41 0  1.390000000002086 0.41 0  1.380000000002141 0.41 0  1.370000000002184 0.41 0  1.360000000002214 0.41 0  1.350000000002224 0.41 0  1.340000000002231 0.41 0  1.33000000000226 0.41 0  1.320000000002299 0.41 0  1.310000000002354 0.41 0  1.300000000002394 0.41 0  1.290000000002424 0.41 0  1.280000000002431 0.41 0  1.270000000002435 0.41 0  1.26000000000244 0.41 0  1.250000000002457 0.41 0  1.240000000002487 0.41 0  1.230000000002536 0.41 0  1.22000000000259 0.41 0  1.21000000000262 0.41 0  1.200
[...]
<PointData  Scalars="p"> 
<DataArray  type="Float64"  Name="p"  format="ascii">5.4556709971339112e-01  3.7876374625334741e-01  0.0000000000000000e+00  0.0000000000000000e+00  -7.1890275743637877e-01  -1.2120168130650575e+00  3.7862774888587392e-01  3.7896686230004201e-01  3.8063282518028846e-01  3.8440715938379727e-01  3.9095528918251826e-01  4.0061291349381989e-01  4.1402144163597132e-01  4.3127443093674095e-01  4.5261928039798438e-01  4.7791193043273222e-01  5.0685003330403700e-01  5.3891222839742481e-01  5.7338833535827649e-01  6.0925519592144439e-01  6.4546233310496359e-01  6.8031471957619216e-01  7.1305560963472636e-01  7.4191160199592021e-01  7.6580256909802535e-01  7.8370877487224089e-01  7.9404484537357722e-01  7.9815904520055070e-01  7.9500868721082230e-01  7.8518568463302763e-01  7.6987516199472905e-01  7.5050838233069750e-01  7.2788313651201897e-01  7.0321828105262485e-01  6.7834452785289012e-01  6.5386286183217868e-01  6.3094933156036337e-01  6.1026300155615476e-01  5.9238254171894722e-01  5.7750624943435802e-01  5.6579731891271257e-01  5.5710202948925547e-01  5.5116641547738299e-01  5.4761201862837383e-01  5.4592254438596532e-01  5.4546821611708340e-01  5.4500302995369865e-01  5.4422939935388259e-01  5.4297857462592969e-01  5.4114503450629814e-01  5.3862864204289040e-01  5.3528197113817311e-01  5.3104007328496183e-01  5.2577496487774378e-01  5.1927523473859771e-01  5.1161415727212189e-01  5.0217988840048811e-01  4.9148669469297518e-01  4.7881886652853439e-01  4.6443767484873871e-01  4.4830709231154431e-01  4.3033037988367734e-01  4.1095725972732700e-01  3.9010801322379096e-01  3.6846625336657945e-01  3.4604130253244891e-01  3.2359488077496140e-01  3.0148055191675316e-01  2.7989026422757263e-01  2.5950294141573599e-01  2.4055049566459058e-01  2.2310350778569663e-01  2.0755613602909939e-01  1.9331085083693803e-01  1.8125683731656497e-01  1.7088099295030706e-01  1.6200789220376502e-01  1.5426600230985132e-01  1.4785017898664479e-01  1.4195900286926730e-01  1.3696331017160129e-01  1.3222399163327014e-01  1.2753943994208553e-01  1.2270925165289730e-01  1.1771915753075610e-01  1.1201519831983783e-01  1.0569433969044613e-01  9.8693856717624553e-02  9.0471455916189963e-02  8.1514891231673409e-02  7.1162907577167811e-02  6.0209394213326974e-02  4.8251066386223090e-02  3.5846016570994468e-02  2.3812293246196454e-02  1.2004905379137325e-02  1.9248316810100423e-03  -6.6899039639598534e-03  -1.3055828048626424e-02  -1.6410790596458839e-02  -1.6466486655986452e-02  -1.3895582635893475e-02  -8.2282188999146695e-03  3.5724244565105471e-04  1.1457264546888540e-02  2.4287953222897684e-02  3.8749148805447574e-02  5.4132997122068517e-02  6.9616831300127274e-02  8.5227811008986229e-02  1.0023578149826391e-01  1.1449492587724741e-01  1.2758056053395853e-01  1.3972027633407449e-01  1.5046226579575855e-01  1.5982707882188851e-01  1.6813647573297860e-01  1.7512658547840723e-01  1.8096604069689790e-01  1.8561176559187109e-01  1.8899171912649182e-01  1.9131870179385913e-01  1.9241080029537561e-01  1.9241096602735669e-01  1.9101506698687609e-01  1.8884308540616337e-01  1.8562430934865304e-01  1.8141177367367819e-01  1.7664781127276530e-01  1.7135251965330650e-01  1.6576674736389657e-01  1.6024756985373054e-01  1.5473548664948966e-01  1.4962159062914779e-01  1.4490510622568253e-01  1.4077411545411239e-01  1.3733545579841183e-01  1.3440331062712293e-01  1.3203145086450679e-01  1.3018397394992356e-01  1.2869292608994121e-01  1.2739652819351435e-01  1.2616979823644864e-01  1.2491121179396268e-01  1.2347302923296830e-01  1.2178895444319032e-01  1.1978822644746311e-01  1.1745339942114132e-01  1.1487155422206918e-01  1.1195530464670414e-01  1.0886937487064606e-01  1.0561790462350797e-01  1.0242252294074028e-01  9.9236443561170562e-02  9.6227004659780985e-02  9.3605891041124809e-02  9.1238753779587817e-02  8.9386138819539454e-02  8.7969562899591888e-02  8.7183470928155149e-02  8.6800129613508401e-02  8.7056442686992794e-02  8.7773188371414082e-02  8.8917880932222582e-02  9.0514924015453482e-02  9.2365851821198205e-02  9.4483314592880160e-02  9.6735629971243547e-02  9.9049608321729252e-02  1.0135117417446335e-01  1.0343624598706172e-01  1.0550201220356148e-01  1.0716022583023480e-01  1.0860408078656796e-01  1.0964894723226834e-01  1.1038982469898936e-01  1.1061493866081797e-01  1.1049896323024509e-01  1.1000534193552937e-01  1.0912253532835844e-01  1.0778371248174570e-01  1.0620999710353178e-01  1.0422746793911031e-01  1.0198870895943306e-01  9.9499058998334583e-02  9.6775307079141296e-02  9.3847682280504593e-02  9.0836230854792185e-02  8.7683215865913280e-02  8.4451425058096496e-02  8.1200192791031259e-02  7.7914085571938713e-02  7.4678393381491834e-02  7.1537351234682300e-02  6.8457840028888772e-02  6.5486192509984970e-02  6.2718837567951741e-02  6.0105135323482696e-02  5.7704651200848257e-02  5.5544623059923470e-02  5.3615632388574724e-02  5.1975668626948399e-02  5.0550571237387786e-02  4.9409289005698083e-02  4.8571011990186222e-02  4.7948948936110611e-02  4.7612229633347866e-02  4.7494643540732844e-02  4.7568082709212034e-02  4.7827206401985803e-02  4.8222023329109305e-02  4.8765018333620291e-02  4.9355678601874751e-02  4.9993592969465921e-02  5.0653735003968053e-02  5.1244564901503017e-02  5.1801868908806101e-02  5.2255915324163543e-02  5.2607905292492367e-02  5.2813249552702043e-02  5.2825117414581027e-02  5.2691970501703246e-02  5.2355750679377332e-02  5.1850892378160679e-02  5.1133934365626368e-02  5.0246095525809852e-02  4.9149972549593010e-02  4.7897455379670009e-02  4.6492083600092861e-02  4.4938843281814897e-02  4.3258914827125024e-02  4.1463030339684966e-02  3.9581039926465091e-02  3.7630349182513234e-02  3.5637193062802643e-02  3.3608771592344044e-02  3.1569515975249367e-02  2.9559746839362449e-02  2.7562059125521409e-02  2.5609817798616340e-02  2.3728958343709840e-02  2.1909898500844509e-02  2.0183294798872067e-02  1.8567590928189239e-02  1.7037775852337088e-02  1.5618711514342503e-02  1.4332963553662394e-02  1.3146100994167312e-02  1.2089262609324606e-02  1.1135684841595647e-02  1.0304021339757618e-02  9.5731816286717761e-03  8.9409298623524345e-03  8.3911485130481328e-03  7.9258621940937624e-03  7.5314584470616520e-03  7.1834640496162777e-03  6.8918751979254065e-03  6.6249191402846883e-03  6.3645669497266293e-03  6.1301296780648809e-03  5.8717564456073545e-03  5.5941333922360148e-03  5.2879067241922628e-03  4.6151748191131823e-03  0.0000000000000000e+00  0.0000000000000000e+00  0.0000000000000000e+00  0.0000000000000000e+00  0.0000000000000000e+00  0.0000000000000000e+00  0.0000000000000000e+00  0.0000000000000000e+00  0.0000000000000000e+00  0.0000000000000000e+00  0.0000000000000000e+00  0.0000000000000000e+00  0.0000000000000000e+00  0.0000000000000000e+00  0.0000000000000000e+00  0.0000000000000000e+00  0.0000000000000000e+00  0.0000000000000000e+00  0.0000000000000000e+00  0.0000000000000000e+00  0.0000000000000000e+00  0.0000000000000000e+00  0.0000000000000000e+00  0.0000000000000000e+00  0.0000000000000000e+00  0.0000000000000000e+00  0.0000000000000000e+00  0.0000000000000000e+00  0.0000000000000000e+00  0.0000000000000000e+00  0.0000000000000000e+00  0.0000000000000000e+00  0.0000000000000000e+00  0.0000000000000000e+00  0.0000000000000000e+00  0.0000000000000000e+00  0.0000000000000000e+00  0.0000000000000000e+00  0.0000000000000000e+00  0.0000000000000000e+00  5.0058504705559467e-03  6.1173389299163210e-03  7.3516659804666196e-03  8.6859288016235756e-03  1.0035254909653927e-02  1.1409188022885880e-02  1.2810858473994996e-02  1.4218243459461211e-02  1.5622176091935341e-02  1.7009382405396616e-02  1.8374228282392841e-02  1.9692906053628025e-02  2.0965726935587261e-02  2.2170179383715027e-02  2.3303504320086876e-02  2.4353304661478645e-02  2.5307019700238506e-02  2.6174720013129885e-02  2.6928762185707871e-02  2.7589072266795460e-02  2.8140481007445827e-02  2.8581349604126487e-02  2.8942723428607250e-02  2.9190612922362642e-02  2.9369563900583463e-02  2.9492407227357357e-02  2.9529593489359032e-02  2.9539455608949269e-02  2.9541700900374904e-02  2.9522397073342286e-02  2.9503980949171203e-02  2.9554326907683264e-02  2.9625748345914679e-02  2.9776729991204166e-02  3.0016683469153194e-02  3.0361130418986318e-02  3.0833513362307056e-02  3.1415298450659337e-02  3.2169583718893224e-02  3.3038366713155846e-02  3.4084423596914125e-02  3.5294068562140422e-02  3.6638305512506623e-02  3.8144367024214226e-02  3.9769679930995928e-02  4.1596095420925225e-02  4.3495447280110955e-02  4.5552762990310372e-02  4.7678826108430841e-02  4.9903700883273866e-02  5.2195678576962445e-02  5.4533896220034371e-02  5.6895498025349218e-02  5.9259800919404478e-02  6.1601719425954132e-02  6.3876886062037799e-02  6.6105190633405697e-02  6.8225537112915596e-02  7.0205139821143944e-02  7.2063937293427277e-02  7.3732869274099930e-02  7.5209089106906477e-02  7.6458209371953093e-02  7.7492945448046802e-02  7.8300368032047957e-02  7.8864685976401769e-02  7.9166845336005986e-02  7.9229836652950483e-02  7.9040794281227900e-02  7.8707441878928641e-02  7.8128720283511560e-02  7.7406051869838371e-02  7.6543373532355755e-02  7.5658745047050752e-02  7.4654428490231323e-02  7.3713367905811844e-02  7.2824895958183755e-02  7.2005935711362212e-02  7.1361164518048054e-02  7.0874606993701156e-02  7.0639827311752432e-02  7.0614715884783644e-02  7.0897219288714189e-02  7.1458117920542449e-02  7.2316506252666654e-02  7.3475646026478686e-02  7.4902954546054154e-02  7.6617409887541510e-02  7.8602553189279584e-02  8.0798988844713787e-02  8.3120219007190008e-02  8.5681251313100310e-02  8.8358591970511893e-02  9.1077350725981221e-02  9.3899529474451696e-02  9.6739723325794044e-02  9.9605020440168654e-02  1.0238913391064393e-01  1.0521335797428406e-01  1.0797171273109571e-01  1.1066804579517943e-01  1.1328839434248887e-01  1.1585192881041434e-01  1.1832468273759750e-01  1.2070663810472444e-01  1.2299546268722555e-01  1.2518560956800634e-01  1.2723673505380562e-01  1.2913222589243886e-01  1.3084943492873144e-01  1.3237348443369037e-01  1.3368336619057683e-01  1.3478459714767835e-01  1.3557660105774361e-01  1.3616456456341441e-01  1.3645857366973016e-01  1.3656310742093708e-01  1.3637225334540148e-01  1.3607734691209636e-01  1.3561559681550511e-01  1.3505917873395668e-01  1.3449756641169233e-01  1.3389699003302602e-01  1.3336959517738237e-01  1.3295614095199529e-01  1.3259875045451455e-01  1.3233865036350617e-01  1.3213658327315109e-01  1.3189269157084110e-01  1.3156448131400172e-01  1.3098224789390553e-01  1.3007846487475136e-01  1.2873715518401277e-01  1.2667289740445709e-01  1.2416449803326203e-01  1.2061434741343047e-01  1.1647396238060991e-01  1.1171176988265667e-01  1.0639271422990632e-01  1.0096997577102021e-01  9.5488176335564112e-02  9.0577323713962335e-02  8.6615560751864260e-02  8.3663072474513572e-02  8.2774699322103004e-02  8.3832082122595644e-02  8.6776650984042303e-02  9.2544725984122250e-02  1.0064188965795046e-01  1.1075588104237018e-01  1.2319720019191631e-01  1.3733550105239989e-01  1.5270631508579222e-01  1.6856698033685333e-01  1.8489492267254654e-01  2.0052372418545855e-01  2.1544053776995922e-01  2.2827398077990649e-01  2.3981308709955451e-01  2.4902875991568660e-01  2.5534741817612611e-01  2.5924147459502256e-01  2.5998081101924109e-01  2.5832148995978066e-01  2.5350641584178624e-01  2.4581635657878126e-01  2.3609348943404956e-01  2.2319558828173247e-01  2.0849069632735340e-01  1.9148221650030264e-01  1.7299313230672875e-01  1.5355327541626815e-01  1.3282057992315421e-01  1.1221039102759359e-01  9.1238738321357121e-02  7.1071209042878947e-02  5.1614541625403805e-02  3.3744642196932129e-02  1.7444583201515377e-02  2.4881165873745018e-03  -9.8340835220458618e-03  -2.0535457179739376e-02  -2.8763587302791892e-02  -3.5123662233560234e-02  -3.9074424658008797e-02  -4.0834961368350325e-02  -4.0406162531010155e-02  -3.7489655490632282e-02  -3.2377927182062470e-02  -2.4838980229587890e-02  -1.5044398398412297e-02  -2.8733872069104317e-03  1.1780173418923720e-02  2.8340253130592304e-02  4.7445892050263727e-02  6.7881953318259622e-02  9.0459408474390823e-02  1.1368143754662960e-01  1.3817001499494777e-01  1.6270133025426456e-01  1.8744912169278957e-01  2.1129685529523165e-01  2.3434918054867651e-01  2.5621334129255124e-01  2.7581793457596787e-01  2.9416498573520938e-01  3.1033207280754088e-01  3.2417437879890604e-01  3.3612766949469974e-01  3.4612014613078651e-01  3.5448093042857381e-01  3.6104531030073395e-01  3.6636164621520412e-01  3.7016175567016507e-01  3.7322597468180246e-01  3.7528017090690452e-01  3.7673448771894202e-01  3.7766446002330450e-01  3.7822863031577353e-01  -1.3151356366043090e+00  -1.2302690817754907e+00  -8.8426847534138686e-01  -3.0620259938328459e-01  4.9942588401201798e-01  1.1995548113630778e+00  1.7420429712831580e+00  1.9777998391116656e+00  1.8508028130027494e+00  1.4113619104651698e+00  8.0493967439643876e-01  1.1186205292996984e-01  -4.3970356284317891e-01  -7.1660568821796600e-01  -8.1703375436157144e-01  -5.8292481449179823e-01  -4.7179750409255983e-01  -3.9918603041352568e-01  -3.5185731414571325e-01  -3.3128906421990095e-01  -3.5137849694735385e-01  -4.2015170567535748e-01  -5.2724820665720762e-01  -6.2363843045713241e-01  -6.7538544034734205e-01  -6.7299166806369959e-01  -6.7548290094571550e-01  -7.2606482804892380e-01  -8.3952110793368462e-01  -9.9491858672777689e-01  -2.1226828237982473e-01  5.0930259521935389e-02  7.6587263661075294e-02  1.3069114833645445e-01  2.9305359887174247e-02  8.0719113135725343e-02  1.1236947443470467e-01  4.6609982261564653e-02  8.9820096737366160e-03  7.8322871646921949e-02  3.3342163842508626e-02  5.3683782400355567e-02  5.0767523079720815e-02  2.5851218018822696e-02  8.2084836682972034e-02  1.1077840087797645e-01  -3.0297410210684117e-01  2.6343644820141160e-01  8.7244588796401970e-02  1.0112942957331988e-01  1.4094772589040219e-01  -8.3685792373059537e-02  8.3993009303446761e-02  1.4281257631735989e-01  3.1725197413771014e-02  1.5913560939437937e-01  8.5696138229498051e-02  4.0869507570634782e-02  7.0396813185054252e-02  6.8831024316237013e-02  2.7997752307269065e-02  4.7071037007252459e-02  2.1768594792310331e-01  1.1176625994567220e-01  1.1091580092131494e-01  4.2659922453366450e-01  1.9494721849803560e-02  6.0036853633197607e-01  8.4404761787459565e-02  1.1277571059651870e-02  -2.3056060004642939e-02  4.7453470902058023e-02  1.6074584676082297e-02  1.2284022717541343e-01  7.5109733082088043e-02  -2.2434407501176384e-01  3.2617952088355842e-02  1.3931636283455054e-01  1.9928441740662717e-01  7.1728118240884986e-02  5.5685878849224060e-03  1.9791440153587522e-01  1.1094649657745531e-01  3.9675980429854110e-02  -7.5062676467150624e-01  1.4922359632301466e-01  4.2091785813451812e-02  9.3102601580316982e-02  8.5701315741765746e-02  2.9813749806404392e-02  1.1443574972044412e-01  6.9577135129462717e-02  2.0944403476141453e-02  8.6711634147580291e-02  5.8257127784650878e-02  4.6549679664806248e-02  8.8132021768678714e-01  3.3488607103056472e-01  4.4731131667877726e-02  8.1157543273106952e-02  3.0096655533029960e-02  9.7795259762856399e-03  6.4322261018298521e-02  5.1534327392957158e-02  9.1128937239757901e-01  4.0911252973468322e-03  9.5277533187648311e-02  1.1823191800619391e-01  5.3714881767391053e-02  1.3052706605015588e-01  4.2826032293212246e-02  9.5746777769798258e-02  2.5016029654384891e-01  6.7224082108865921e-02  1.2495243014362341e-01  -6.4750113498149072e-03  1.1006430096769117e-01  1.3930787121725802e-01  7.7839219220716224e-02  2.8218366889884969e-02  6.6269621137133666e-02  9.0379081530929203e-02  1.0475104736598526e-01  2.4635770539227633e-02  1.1335342067984508e-01  1.0373756843059427e-01  -1.7065880256897961e-01  8.8022198546996527e-02  7.4438197125826486e-02  2.8351841629948293e-01  1.1754712000660135e-01  1.0147888632665222e-01  -3.3151630086273798e-01  8.3220937044647031e-02  -8.4758401978577003e-01  5.0420917990280999e-02  -9.9935008142831017e-02  2.5905614674718701e-04  -1.3913112992570731e-01  1.6977092931961815e-01  1.4037717553159623e-01  1.1000392469569190e-01  9.3316014619165610e-02  2.8941832300876328e-02  7.2620656634764635e-02  1.2856967443060568e-01  -1.6852026471082356e-02  6.7216453925390579e-02  3.0643042790916879e-02  2.9341902771380199e-02  -1.6703465552750210e-01  2.7642363801318415e-01  1.1033224776897499e-01  1.2970442002085117e-01  1.9472294969752915e-01  4.8800532318217765e-02  6.1001508367829846e-02  1.1513748570210598e-01  1.4983790824478607e-01  1.2592423331184788e-01  2.0883874687909887e-01  3.7842707819306785e-02  9.6396063730192244e-02  1.5909343354220190e-01  3.8714722352568631e-01  1.1008545896545802e-01  9.1850871593536949e-03  6.4230398504310809e-02  1.5023012478054184e-02  5.5351145949915781e-01  6.7849668092340859e-02  1.6151745173640677e-02  1.1292297634988303e-01  1.2814341621031147e-01  1.8508878752211931e-02  2.7749401128121867e-02  6.8621776452468003e-02  2.9282355097414316e-02  4.8354671955327999e-02  8.4001358174790028e-02  8.0794534245471394e-02  3.0447907114660122e-01  7.3809577462543144e-02  6.0596039426484900e-02  4.2549409929238710e-02  4.6681444401145661e-02  3.8307946004081946e-02  9.7830013076737055e-02  -2.8715521317314741e-01  1.0618057247330906e-02  5.7780146295780110e-01  1.3607682659325063e-01  1.9182970320623643e-02  7.7117758109071496e-02  6.5121495581148270e-02  2.2890336743364126e-01  5.2144019368280246e-02  2.8237102815632062e-02  4.8372525115503556e-01  9.3003339161016260e-02  1.1698258948676672e-01  1.4292402903414830e-01  9.6438085019945621e-02  1.6011451429769979e-02  2.8988960641272675e-02  1.0034013588388410e-01  8.6268681206404918e-01  6.8816336565500091e-01  4.0105865625937660e-02  5.9477811558533754e-03  7.3707667990065548e-02  -2.0142950767010909e-01  -5.2179881370434264e-02  7.9893631831002482e-02  4.0309592285270174e-03  9.7739186867007805e-02  9.1654050890028343e-02  2.8268590478520074e-02  -9.1935238804407529e-02  7.6287820402402302e-03  4.1387094253048845e-02  5.8349254740909608e-02  1.0093056649927575e-01  5.2954980879622707e-02  1.9847076505884018e-01  3.2630394412832601e-03  7.7985876526634121e-02  2.7881433732776401e-01  1.2180320363891287e-01  8.6680857887096091e-02  1.8969345154437701e-02  8.6160732227211462e-02  1.0879271043467159e-01  1.4569753944743327e-01  2.4243438481763996e-02  5.0516359152463101e-02  9.5771506165620857e-02  1.3005996306599561e+00  7.2716613132702612e-02  1.1623663827525980e-01  9.8821296666873296e-02  -5.2532400350963730e-02  8.6656031641468456e-01  4.9593965655236626e-02  1.2725193829951612e-01  1.2194049271196924e-01  -1.0494850955830388e-01  2.9064596933524721e-02  6.6994280356031093e-03  3.2222454431595493e-02  7.2692715162141999e-02  7.8852032394547422e-01  1.1488526549005579e-01  -3.5416894517565745e-01  1.3739224257035457e-01  6.5014489557032040e-02  5.3237123092682567e-02  1.1727519780352294e-01  1.2318972936878628e-01  1.9964386506961079e-01  2.3876308268230639e-01  8.0937750043227411e-03  3.3684304643170022e-02  3.8402101359966345e-01  2.3746907238683307e-01  1.2560899061787323e-01  2.8040665240262479e-02  8.7243338721740171e-02  7.1697279500642891e-02  1.7751641966927303e-01  7.1385689570266544e-02  2.9297122186021604e-03  1.9474958160411246e-01  4.7732927660070520e-02  7.9957092523281384e-02  2.8521113881388865e-02  8.2864588929907699e-03  1.1106935762112530e-01  8.8857768939636400e-02  2.9845497995461601e-01  1.1526297432899452e-01  -8.2800267210497547e-01  1.0728577600739088e-01  -2.7215488954713304e-02  1.0621735760999504e-01  1.0905741818431550e-02  1.7330505498599019e-01  8.1260986336849209e-02  7.9330484080270297e-02  7.0567368716454887e-02  4.9415467644156594e-02  1.2416527890936399e-01  -6.1254269624755475e-01  1.2099000699867291e-01  1.0000986673227476e-01  4.7501330670093551e-02  2.5537741277547148e-02  -9.3219882250518515e-01  5.0885468552898050e-02  1.7579753754029787e-01  4.5376304488405454e-02  4.9826048247423226e-02  7.1965082395092944e-02  -5.317