<?xml version="1.0"?>
<VTKFile type="UnstructuredGrid"  version="0.1"  >
<UnstructuredGrid>
<Piece  NumberOfPoints="12123" NumberOfCells="23692">
<Points>
<DataArray  type="Float64"  NumberOfComponents="3"  format="ascii">0 0 0  0 0.41 0  2.2 0 0  2.2 0.41 0  0.2 0.15 0  0.2 0.25 0  0 0.4000000000000008 0  0 0.3900000000000259 0  0 0.3800000000000606 0  0 0.3700000000000953 0  0 0.3600000000001082 0  0 0.3500000000001241 0  0 0.3400000000001558 0  0 0.3300000000001905 0  0 0.3200000000002133 0  0 0.3100000000002381 0  0 0.3000000000002728 0  0 0.2900000000003075 0  0 0.2800000000003204 0  0 0.2700000000003551 0  0 0.2600000000003897 0  0 0.2500000000004243 0  0 0.2400000000004419 0  0 0.2300000000004503 0  0 0.2200000000004849 0  0 0.2100000000005195 0  0 0.2000000000005203 0  0 0.1900000000004874 0  0 0.1800000000004544 0  0 0.1700000000004476 0  0 0.1600000000004316 0  0 0.1500000000003986 0  0 0.1400000000003795 0  0 0.1300000000003759 0  0 0.1200000000003428 0  0 0.1100000000003098 0  0 0.1000000000002768 0  0 0.09000000000024383 0  0 0.08000000000021068 0  0 0.07000000000020096 0  0 0.0600000000001879 0  0 0.05000000000015475 0  0 0.04000000000012166 0  0 0.03000000000008857 0  0 0.02000000000005536 0  0 0.01000000000002221 0  0.009999999999981288 0 0  0.01999999999996251 0 0  0.02999999999994353 0 0  0.0399999999999241 0 0  0.04999999999990434 0 0  0.05999999999988457 0 0  0.06999999999986481 0 0  0.07999999999984503 0 0  0.08999999999982462 0 0  0.09999999999980327 0 0  0.1099999999997819 0 0  0.1199999999997606 0 0  0.1299999999997423 0 0  0.1399999999997245 0 0  0.1499999999997079 0 0  0.1599999999996929 0 0  0.1699999999996795 0 0  0.179999999999666 0 0  0.1899999999996523 0 0  0.1999999999996356 0 0  0.209999999999619 0 0  0.2199999999996025 0 0  0.2299999999995879 0 0  0.2399999999995744 0 0  0.249999999999561 0 0  0.2599999999995468 0 0  0.2699999999995302 0 0  0.2799999999995105 0 0  0.2899999999994876 0 0  0.2999999999994596 0 0  0.3099999999994304 0 0  0.3199999999994012 0 0  0.3299999999993699 0 0  0.3399999999993343 0 0  0.3499999999992988 0 0  0.3599999999992632 0 0  0.3699999999992334 0 0  0.3799999999992042 0 0  0.3899999999991749 0 0  0.3999999999991457 0 0  0.4099999999991165 0 0  0.4199999999990872 0 0  0.429999999999058 0 0  0.4399999999990288 0 0  0.4499999999989995 0 0  0.4599999999989703 0 0  0.4699999999989373 0 0  0.4799999999989018 0 0  0.4899999999988663 0 0  0.4999999999988318 0 0  0.5099999999988025 0 0  0.5199999999987733 0 0  0.529999999998744 0 0  0.5399999999987057 0 0  0.5499999999986639 0 0  0.559999999998622 0 0  0.5699999999985838 0 0  0.5799999999985546 0 0  0.5899999999985253 0 0  0.5999999999984962 0 0  0.6099999999984668 0 0  0.6199999999984376 0 0  0.6299999999984084 0 0  0.6399999999983792 0 0  0.6499999999983499 0 0  0.6599999999983207 0 0  0.6699999999982915 0 0  0.6799999999982622 0 0  0.6899999999982329 0 0  0.6999999999982038 0 0  0.7099999999981744 0 0  0.7199999999981452 0 0  0.7299999999981162 0 0  0.7399999999980867 0 0  0.7499999999980577 0 0  0.7599999999980284 0 0  0.769999999997999 0 0  0.7799999999979699 0 0  0.7899999999979407 0 0  0.7999999999979114 0 0  0.8099999999978793 0 0  0.8199999999978375 0 0  0.8299999999977956 0 0  0.8399999999977538 0 0  0.8499999999977218 0 0  0.8599999999976925 0 0  0.8699999999976633 0 0  0.8799999999976341 0 0  0.8899999999976047 0 0  0.8999999999975756 0 0  0.9099999999975463 0 0  0.9199999999975172 0 0  0.9299999999974878 0 0  0.9399999999974586 0 0  0.9499999999974295 0 0  0.9599999999974002 0 0  0.969999999997371 0 0  0.9799999999973418 0 0  0.9899999999973124 0 0  0.9999999999972872 0 0  1.009999999997271 0 0  1.019999999997246 0 0  1.029999999997217 0 0  1.039999999997188 0 0  1.049999999997163 0 0  1.059999999997159 0 0  1.069999999997144 0 0  1.079999999997114 0 0  1.089999999997085 0 0  1.099999999997056 0 0  1.109999999997077 0 0  1.119999999997098 0 0  1.12999999999712 0 0  1.139999999997141 0 0  1.149999999997162 0 0  1.159999999997205 0 0  1.169999999997248 0 0  1.179999999997269 0 0  1.18999999999729 0 0  1.199999999997312 0 0  1.209999999997333 0 0  1.219999999997354 0 0  1.229999999997375 0 0  1.239999999997403 0 0  1.249999999997449 0 0  1.259999999997482 0 0  1.269999999997503 0 0  1.279999999997525 0 0  1.289999999997546 0 0  1.299999999997567 0 0  1.309999999997589 0 0  1.31999999999761 0 0  1.329999999997648 0 0  1.339999999997694 0 0  1.349999999997717 0 0  1.359999999997738 0 0  1.369999999997759 0 0  1.379999999997781 0 0  1.389999999997802 0 0  1.399999999997823 0 0  1.409999999997846 0 0  1.419999999997893 0 0  1.42999999999793 0 0  1.439999999997952 0 0  1.449999999997973 0 0  1.459999999997994 0 0  1.469999999998015 0 0  1.479999999998037 0 0  1.489999999998058 0 0  1.499999999998091 0 0  1.509999999998137 0 0  1.519999999998165 0 0  1.529999999998186 0 0  1.539999999998207 0 0  1.549999999998229 0 0  1.55999999999825 0 0  1.569999999998271 0 0  1.579999999998293 0 0  1.589999999998336 0 0  1.599999999998378 0 0  1.6099999999984 0 0  1.619999999998421 0 0  1.629999999998442 0 0  1.639999999998464 0 0  1.649999999998485 0 0  1.659999999998506 0 0  1.669999999998528 0 0  1.679999999998549 0 0  1.68999999999857 0 0  1.699999999998592 0 0  1.709999999998634 0 0  1.719999999998677 0 0  1.729999999998699 0 0  1.73999999999872 0 0  1.749999999998741 0 0  1.759999999998762 0 0  1.769999999998784 0 0  1.779999999998805 0 0  1.789999999998833 0 0  1.799999999998879 0 0  1.809999999998912 0 0  1.819999999998933 0 0  1.829999999998954 0 0  1.839999999998976 0 0  1.849999999998997 0 0  1.859999999999018 0 0  1.86999999999904 0 0  1.879999999999078 0 0  1.889999999999124 0 0  1.899999999999147 0 0  1.909999999999168 0 0  1.919999999999189 0 0  1.929999999999211 0 0  1.939999999999232 0 0  1.949999999999253 0 0  1.959999999999276 0 0  1.969999999999323 0 0  1.97999999999936 0 0  1.989999999999381 0 0  1.999999999999387 0 0  2.009999999999383 0 0  2.019999999999379 0 0  2.029999999999375 0 0  2.039999999999371 0 0  2.049999999999391 0 0  2.059999999999437 0 0  2.069999999999521 0 0  2.079999999999617 0 0  2.089999999999663 0 0  2.099999999999694 0 0  2.109999999999689 0 0  2.119999999999686 0 0  2.129999999999681 0 0  2.139999999999722 0 0  2.149999999999776 0 0  2.159999999999873 0 0  2.169999999999948 0 0  2.179999999999994 0 0  2.190000000000004 0 0  2.2 0.009999999999981952 0  2.2 0.01999999999996097 0  2.2 0.02999999999994221 0  2.2 0.03999999999992531 0  2.2 0.04999999999991126 0  2.2 0.05999999999988534 0  2.2 0.06999999999985251 0  2.2 0.07999999999982024 0  2.2 0.08999999999980195 0  2.2 0.0999999999997695 0  2.2 0.1099999999997346 0  2.2 0.1199999999997104 0  2.2 0.1299999999996865 0  2.2 0.1399999999996516 0  2.2 0.1499999999996167 0  2.2 0.1599999999995818 0  2.2 0.169999999999564 0  2.2 0.1799999999995553 0  2.2 0.1899999999995205 0  2.2 0.1999999999994856 0  2.2 0.2099999999994845 0  2.2 0.2199999999995173 0  2.2 0.2299999999995501 0  2.2 0.2399999999995566 0  2.2 0.2499999999995723 0  2.2 0.259999999999605 0  2.2 0.2699999999996239 0  2.2 0.2799999999996273 0  2.2 0.2899999999996601 0  2.2 0.2999999999996928 0  2.2 0.3099999999997256 0  2.2 0.3199999999997584 0  2.2 0.3299999999997912 0  2.2 0.3399999999998008 0  2.2 0.3499999999998136 0  2.2 0.3599999999998464 0  2.2 0.3699999999998793 0  2.2 0.3799999999999122 0  2.2 0.3899999999999451 0  2.2 0.3999999999999779 0  2.190000000000005 0.41 0  2.180000000000009 0.41 0  2.170000000000015 0.41 0  2.160000000000019 0.41 0  2.150000000000024 0.41 0  2.140000000000029 0.41 0  2.130000000000033 0.41 0  2.120000000000038 0.41 0  2.110000000000043 0.41 0  2.100000000000048 0.41 0  2.090000000000087 0.41 0  2.080000000000142 0.41 0  2.070000000000197 0.41 0  2.06000000000024 0.41 0  2.050000000000245 0.41 0  2.040000000000249 0.41 0  2.030000000000254 0.41 0  2.020000000000259 0.41 0  2.010000000000264 0.41 0  2.000000000000268 0.41 0  1.990000000000273 0.41 0  1.980000000000278 0.41 0  1.970000000000283 0.41 0  1.960000000000287 0.41 0  1.950000000000292 0.41 0  1.940000000000302 0.41 0  1.930000000000332 0.41 0  1.920000000000362 0.41 0  1.910000000000392 0.41 0  1.900000000000422 0.41 0  1.890000000000452 0.41 0  1.880000000000482 0.41 0  1.870000000000503 0.41 0  1.860000000000508 0.41 0  1.850000000000529 0.41 0  1.840000000000559 0.41 0  1.830000000000588 0.41 0  1.820000000000618 0.41 0  1.810000000000648 0.41 0  1.800000000000678 0.41 0  1.790000000000708 0.41 0  1.780000000000719 0.41 0  1.770000000000725 0.41 0  1.760000000000755 0.41 0  1.750000000000785 0.41 0  1.740000000000815 0.41 0  1.730000000000845 0.41 0  1.720000000000875 0.41 0  1.710000000000905 0.41 0  1.700000000000931 0.41 0  1.690000000000936 0.41 0  1.680000000000951 0.41 0  1.670000000000981 0.41 0  1.660000000001048 0.41 0  1.650000000001128 0.41 0  1.640000000001208 0.41 0  1.630000000001275 0.41 0  1.620000000001305 0.41 0  1.610000000001321 0.41 0  1.600000000001325 0.41 0  1.590000000001351 0.41 0  1.580000000001384 0.41 0  1.57000000000144 0.41 0  1.560000000001495 0.41 0  1.55000000000155 0.41 0  1.540000000001588 0.41 0  1.530000000001618 0.41 0  1.520000000001623 0.41 0  1.510000000001634 0.41 0  1.500000000001664 0.41 0  1.490000000001708 0.41 0  1.480000000001763 0.41 0  1.470000000001818 0.41 0  1.460000000001871 0.41 0  1.450000000001901 0.41 0  1.440000000001922 0.41 0  1.430000000001926 0.41 0  1.420000000001947 0.41 0  1.410000000001977 0.41 0  1.400000000002031 0.41 0  1.390000000002086 0.41 0  1.380000000002141 0.41 0  1.370000000002184 0.41 0  1.360000000002214 0.41 0  1.350000000002224 0.41 0  1.340000000002231 0.41 0  1.33000000000226 0.41 0  1.320000000002299 0.41 0  1.310000000002354 0.41 0  1.300000000002394 0.41 0  1.290000000002424 0.41 0  1.280000000002431 0.41 0  1.270000000002435 0.41 0  1.26000000000244 0.41 0  1.250000000002457 0.41 0  1.240000000002487 0.41 0  1.230000000002536 0.41 0  1.22000000000259 0.41 0  1.21000000000262 0.41 0  1.200
[...]
<PointData  Scalars="p"> 
<DataArray  type="Float64"  Name="p"  format="ascii">4.7558660898049304e-01  3.5462262972535669e-01  0.0000000000000000e+00  0.0000000000000000e+00  -7.7108536319935084e-01  -1.0888416163666659e+00  3.5449163934894251e-01  3.5490487852232316e-01  3.5670009766859179e-01  3.6063151459847254e-01  3.6733848281740972e-01  3.7713210614936943e-01  3.9061455137171408e-01  4.0785898377450658e-01  4.2906172421899941e-01  4.5405168020768955e-01  4.8248957158977512e-01  5.1382181434106633e-01  5.4728528967438472e-01  5.8187967081865388e-01  6.1650269792047419e-01  6.4945283241184415e-01  6.8002449271322085e-01  7.0644179551841180e-01  7.2766792969661342e-01  7.4273220192260703e-01  7.5010879628357829e-01  7.5122467395167547e-01  7.4508701684466772e-01  7.3236169218521530e-01  7.1429428000639816e-01  6.9235215391462823e-01  6.6737659651532699e-01  6.4062100270144517e-01  6.1391789177530920e-01  5.8789055652058464e-01  5.6369653564791244e-01  5.4198991607364000e-01  5.2334201211059705e-01  5.0791791832340294e-01  4.9586183621660979e-01  4.8698589940127157e-01  4.8099753482520585e-01  4.7747781557369640e-01  4.7586440111104195e-01  4.7547747701430493e-01  4.7502537243762150e-01  4.7434560851521185e-01  4.7328161072530328e-01  4.7172426069582107e-01  4.6956306736660702e-01  4.6665527365432175e-01  4.6286512579229833e-01  4.5809106273129313e-01  4.5202092429125446e-01  4.4471570502070062e-01  4.3549334237985543e-01  4.2485966844785900e-01  4.1194097968286114e-01  3.9707429954300283e-01  3.8007695224493571e-01  3.6086145375689599e-01  3.3981777992327766e-01  3.1683500862164338e-01  2.9257787220540038e-01  2.6698717151433676e-01  2.4091160346600901e-01  2.1453591497240418e-01  1.8823799783807843e-01  1.6257422852293568e-01  1.3794499373435282e-01  1.1418619363374373e-01  9.2140215038471404e-02  7.0976523802812094e-02  5.2027551782565011e-02  3.4497384067783091e-02  1.8398541757557101e-02  3.9226404077342368e-03  -9.2116809158058859e-03  -2.1083876097569693e-02  -3.1606811369903814e-02  -4.1162015292533632e-02  -4.9690751793650227e-02  -5.7567958423184365e-02  -6.4707940302966532e-02  -7.1275658356612356e-02  -7.7655149121727274e-02  -8.3411627011036243e-02  -8.9305275125331054e-02  -9.4819135594097798e-02  -1.0034359772978298e-01  -1.0553137919379427e-01  -1.1037676931338229e-01  -1.1477505181494915e-01  -1.1787912103867215e-01  -1.2007964081454228e-01  -1.2006677035719859e-01  -1.1820215676217495e-01  -1.1394162632678848e-01  -1.0698147602223626e-01  -9.6931337624740294e-02  -8.4292561474972785e-02  -6.9417414270492667e-02  -5.1928406026113878e-02  -3.2565925266116916e-02  -1.2019569548937728e-02  9.5343987263384559e-03  3.1561278131500309e-02  5.2936039919613813e-02  7.3984046920080537e-02  9.3800889533444745e-02  1.1229194928767407e-01  1.2889670808551040e-01  1.4391487305026673e-01  1.5671486633270507e-01  1.6716564152252877e-01  1.7568908997304433e-01  1.8185217757829977e-01  1.8578241639655052e-01  1.8746824431629738e-01  1.8660546321135724e-01  1.8375663421868788e-01  1.7848220282071267e-01  1.7146219353566253e-01  1.6184636819724105e-01  1.5092855498040020e-01  1.3872178839572205e-01  1.2511743374389089e-01  1.1089315049910299e-01  9.6742158027343525e-02  8.2512767828646930e-02  6.9758785415320532e-02  5.7763685599528061e-02  4.7682885915201832e-02  3.9339399448412860e-02  3.3205764734213175e-02  2.9686779748026894e-02  2.8051952618642999e-02  2.8530758173707291e-02  3.1027385341767088e-02  3.5268063070644742e-02  4.0696223948553593e-02  4.6844351496502831e-02  5.3592923035677621e-02  6.0229253711906815e-02  6.6700913414056706e-02  7.2452003680847310e-02  7.7567982132863200e-02  8.1612809689753124e-02  8.4418988831926084e-02  8.6274330127212501e-02  8.6916031361302590e-02  8.6546905369884575e-02  8.5226403453584551e-02  8.3159217094100540e-02  8.0436205437418987e-02  7.7170356798733603e-02  7.3606014231076114e-02  6.9884894213205470e-02  6.6031868236153840e-02  6.2249783520689293e-02  5.8684738116967769e-02  5.5280200362098575e-02  5.2193365827128968e-02  4.9458275778775228e-02  4.7011938706233498e-02  4.4964270617594455e-02  4.3224444299678227e-02  4.1801262025257344e-02  4.0645900541628636e-02  3.9769700403544050e-02  3.9082039133556561e-02  3.8564416640303627e-02  3.8196722460078124e-02  3.7927000192569199e-02  3.7723050269409981e-02  3.7570306857895565e-02  3.7436074711037236e-02  3.7306731537799377e-02  3.7161416184998575e-02  3.6981170431146619e-02  3.6774544073328849e-02  3.6504941110851293e-02  3.6186423923400844e-02  3.5800593035687861e-02  3.5331903132009200e-02  3.4788212541628082e-02  3.4162878294398291e-02  3.3435163350575871e-02  3.2604202950898040e-02  3.1671457216180594e-02  3.0604686510494430e-02  2.9466345476679170e-02  2.8165000904156481e-02  2.6773594661531619e-02  2.5255648179775693e-02  2.3663813232675600e-02  2.1962207838172178e-02  2.0183846546087722e-02  1.8338381660372324e-02  1.6455566004469104e-02  1.4542093631562629e-02  1.2593325912354899e-02  1.0704492354100505e-02  8.8307675896126658e-03  6.9932709155925837e-03  5.2792640792395365e-03  3.5989593109011834e-03  2.0485139465172054e-03  6.0482106394592057e-04  -7.0101668697689014e-04  -1.8951687829797735e-03  -2.9706237867615829e-03  -3.8814939772211098e-03  -4.7014199975142015e-03  -5.3712911505623710e-03  -5.9288325898042863e-03  -6.3874603387799557e-03  -6.7458614487171300e-03  -7.0196640408785663e-03  -7.2040865517714412e-03  -7.3245080962881758e-03  -7.3852040810327181e-03  -7.3984764504839394e-03  -7.3702193968731549e-03  -7.3090467430771836e-03  -7.2221841943171938e-03  -7.1128341697961261e-03  -6.9911505807643591e-03  -6.8565582057374293e-03  -6.7146396818624264e-03  -6.5624950238995488e-03  -6.4033866608976019e-03  -6.2360568617823966e-03  -6.0614882018896997e-03  -5.8725406490018244e-03  -5.6717400920098587e-03  -5.4550390644459001e-03  -5.2167327095926901e-03  -4.9567878707074816e-03  -4.6686378226831792e-03  -4.3558208610264115e-03  -4.0111414888040512e-03  -3.6384104672866485e-03  -3.2272886508021340e-03  -2.7862443237781078e-03  -2.3199993956150838e-03  -1.8166423558116946e-03  -1.2846334886711960e-03  -7.3930160621855261e-04  -1.5915202897053097e-04  4.1623471737366641e-04  1.0240182112693534e-03  1.6195234338247486e-03  2.2126012334858095e-03  2.8105225097968772e-03  3.3738693381169076e-03  3.9376162942136332e-03  4.4663389954675446e-03  4.9399181710800015e-03  5.3962238042375918e-03  5.7798954759073007e-03  6.0989324754811827e-03  6.3567463498692359e-03  5.9996859174357925e-03  0.0000000000000000e+00  0.0000000000000000e+00  0.0000000000000000e+00  0.0000000000000000e+00  0.0000000000000000e+00  0.0000000000000000e+00  0.0000000000000000e+00  0.0000000000000000e+00  0.0000000000000000e+00  0.0000000000000000e+00  0.0000000000000000e+00  0.0000000000000000e+00  0.0000000000000000e+00  0.0000000000000000e+00  0.0000000000000000e+00  0.0000000000000000e+00  0.0000000000000000e+00  0.0000000000000000e+00  0.0000000000000000e+00  0.0000000000000000e+00  0.0000000000000000e+00  0.0000000000000000e+00  0.0000000000000000e+00  0.0000000000000000e+00  0.0000000000000000e+00  0.0000000000000000e+00  0.0000000000000000e+00  0.0000000000000000e+00  0.0000000000000000e+00  0.0000000000000000e+00  0.0000000000000000e+00  0.0000000000000000e+00  0.0000000000000000e+00  0.0000000000000000e+00  0.0000000000000000e+00  0.0000000000000000e+00  0.0000000000000000e+00  0.0000000000000000e+00  0.0000000000000000e+00  0.0000000000000000e+00  6.7345628573662400e-03  6.4032757616092470e-03  5.8580387846992200e-03  5.3692318300723359e-03  4.7255894874181853e-03  4.0389198315964837e-03  3.2733399871894076e-03  2.4496155882017590e-03  1.5917242734079433e-03  6.6909615190022535e-04  -2.8149477966953810e-04  -1.2657251677406429e-03  -2.2904992435492100e-03  -3.3043359873823602e-03  -4.3664287121539264e-03  -5.4023135639831386e-03  -6.4690677011441334e-03  -7.4997148692816755e-03  -8.5280916035235417e-03  -9.5129583241159374e-03  -1.0472262131484358e-02  -1.1373759037878985e-02  -1.2230122455791472e-02  -1.2997186260092422e-02  -1.3711887331995274e-02  -1.4316807394831692e-02  -1.4825303540247581e-02  -1.5248837241683130e-02  -1.5535701869962771e-02  -1.5703624766181395e-02  -1.5751658672542957e-02  -1.5681518969337043e-02  -1.5454931207701195e-02  -1.5120202422573730e-02  -1.4634133403786121e-02  -1.4039597965985952e-02  -1.3287275225096852e-02  -1.2450697358815467e-02  -1.1470245765921599e-02  -1.0411366227530253e-02  -9.2689581193720252e-03  -8.0154683947048101e-03  -6.7261510992548852e-03  -5.3813380377224955e-03  -4.0330759824906554e-03  -2.6225663095974729e-03  -1.2359586382911199e-03  1.4680654122946349e-04  1.4887211913112580e-03  2.7736495831752260e-03  4.0027131237755842e-03  5.1619332576244075e-03  6.2305932343009003e-03  7.1997737420359731e-03  8.0843158382413738e-03  8.8157586719607665e-03  9.4707634650695281e-03  1.0004288792172163e-02  1.0425221986384927e-02  1.0759590034181945e-02  1.0995213089341734e-02  1.1163912485436436e-02  1.1270301544497673e-02  1.1341696895853962e-02  1.1408432332059047e-02  1.1493064288149392e-02  1.1622109150706439e-02  1.1836216682086797e-02  1.2156502774062841e-02  1.2600394708411702e-02  1.3248207359743528e-02  1.4078597339846814e-02  1.5135498959849357e-02  1.6409172834679145e-02  1.7972776024225940e-02  1.9740225749112945e-02  2.1772784884357181e-02  2.4057512083061616e-02  2.6505360512354439e-02  2.9139123344011541e-02  3.1878407614362191e-02  3.4677280777830409e-02  3.7464315731725650e-02  4.0180562275033159e-02  4.2725033946940591e-02  4.5066089440397174e-02  4.7096326569468244e-02  4.8715000151415715e-02  4.9946174541173109e-02  5.0711076803614752e-02  5.1049404502048361e-02  5.0745459410757268e-02  5.0032731361383233e-02  4.8886107201631800e-02  4.7230365511540813e-02  4.5335028439284331e-02  4.3129640918527702e-02  4.0921916878626709e-02  3.8615950238458818e-02  3.6458730070950490e-02  3.4608410305098605e-02  3.3168827741464679e-02  3.2245097542774021e-02  3.2020241630712411e-02  3.2469965436255806e-02  3.3801416013781588e-02  3.5938621309695468e-02  3.8770873788581552e-02  4.2539591158148198e-02  4.7042248510135116e-02  5.2289035366230599e-02  5.8069028553152033e-02  6.4176450915582384e-02  7.0735523354975058e-02  7.7418816561411835e-02  8.4197575668366387e-02  9.0699715358707522e-02  9.7212659972687063e-02  1.0327367322054860e-01  1.0887014943816846e-01  1.1403141062327996e-01  1.1855365285653489e-01  1.2244604677235352e-01  1.2587178343626368e-01  1.2832277650280668e-01  1.3026650782751301e-01  1.3139986935453615e-01  1.3175408156354357e-01  1.3121856545785152e-01  1.2991068875815376e-01  1.2737879963829118e-01  1.2388158201269250e-01  1.1924774333064581e-01  1.1306165588221379e-01  1.0602444357821408e-01  9.7126854629561138e-02  8.7148294180060135e-02  7.6136568783495409e-02  6.4049559343164850e-02  5.1580597258215150e-02  3.8596398588141442e-02  2.6060568892454821e-02  1.4076826856374135e-02  3.0328058594733835e-03  -5.9226108611098345e-03  -1.3066653421104569e-02  -1.7977248233875424e-02  -1.9623297794028369e-02  -1.8552344220157384e-02  -1.4620909976553246e-02  -7.5168814694420178e-03  2.3427735711014849e-03  1.4333755797032971e-02  2.8032019852263258e-02  4.3282559178664540e-02  5.8777668176183857e-02  7.4529481587974164e-02  8.8910703061185245e-02  1.0296433385376637e-01  1.1510455818737514e-01  1.2485537275695482e-01  1.3279997495486698e-01  1.3802405707947205e-01  1.4120835155330672e-01  1.4149130872691768e-01  1.3938424366992386e-01  1.3516936337034141e-01  1.2800670314981027e-01  1.1899058142575093e-01  1.0758799028910064e-01  9.4411542547921765e-02  7.9822803796626027e-02  6.3468925295429898e-02  4.6616551703487906e-02  2.8651531394793105e-02  1.0803776241102894e-02  -7.1948181694197373e-03  -2.4064850682448392e-02  -4.0338479344207721e-02  -5.5668725774931746e-02  -6.8641816811879725e-02  -8.0381462814574603e-02  -8.9591199781015540e-02  -9.6817512478013859e-02  -1.0151492878240663e-01  -1.0341982471504484e-01  -1.0287339768081588e-01  -9.9276140084798417e-02  -9.3035314071060610e-02  -8.4020201556980811e-02  -7.2333225856816827e-02  -5.7978612542187932e-02  -4.0968781152454940e-02  -2.1980453337637040e-02  -4.0716960116683293e-04  2.2374095580741472e-02  4.7227401255574959e-02  7.2505258182413865e-02  9.8849908415508031e-02  1.2501297229171382e-01  1.5120287352478495e-01  1.7628442882165282e-01  2.0041674937664317e-01  2.2325882674328376e-01  2.4369384446326522e-01  2.6289158094044385e-01  2.7984281552386175e-01  2.9442575028551510e-01  3.0715006905417486e-01  3.1788767408257479e-01  3.2699091362600624e-01  3.3424341158413229e-01  3.4020992223003199e-01  3.4457407966530090e-01  3.4814326692514641e-01  3.5058930809428385e-01  3.5232654493225074e-01  3.5344225210918984e-01  3.5409121812432276e-01  -1.1908994348692357e+00  -1.1101478529786628e+00  -7.7993333914949037e-01  -2.1960448002817398e-01  5.5443171051869611e-01  1.2288521190614397e+00  1.7368048658906228e+00  1.9374235009435907e+00  1.7763477324005517e+00  1.3113966822923493e+00  6.8932128499047851e-01  -1.2379247355497372e-02  -5.5497439081879729e-01  -8.1316119041159485e-01  -8.8921113065850865e-01  -6.2092917956392013e-01  -5.0156539563343583e-01  -4.2509246327089928e-01  -3.8106574251140152e-01  -3.6758039793313357e-01  -3.7579364042220798e-01  -4.0315686770670256e-01  -4.4992656137292153e-01  -5.1198282026849962e-01  -5.6997379270265580e-01  -6.0261806168123888e-01  -6.2318004762313706e-01  -6.6605992953771054e-01  -7.6061006055712488e-01  -8.9697416010699937e-01  -4.2982354142083457e-01  2.0414172214318523e-03  2.6029967283778346e-02  7.7822308390710970e-02  -7.7056698811257332e-03  2.7531338203346155e-02  8.9703375034824132e-02  -2.6167742982391735e-02  -2.7616910680655117e-03  1.6675721170214798e-02  -8.3696735163294577e-03  -7.7996999542298395e-03  1.7187713070208274e-02  -7.0332956194124954e-03  5.0682135886637246e-02  4.9915886419286300e-02  -3.8194005435883988e-01  7.7160073595660003e-02  1.9741296457599131e-02  9.7103123741704475e-02  7.1252619214892232e-02  -3.3886323863878715e-01  6.9602182173138419e-02  3.3270267605530743e-02  -2.3438268502856081e-02  1.7057229878908223e-01  2.9844400911045940e-02  -6.4646758452903807e-03  1.1170522427057092e-02  2.3735548889347317e-02  -1.5402128075896693e-02  -3.0659959619843882e-03  1.3763493596716467e-01  2.5404216274420615e-02  8.1836067954716998e-02  4.0540232075259924e-01  -4.6400162570060556e-03  5.3243217958746947e-01  5.0060189571153706e-02  -3.1896734335444092e-03  -2.4270795162430472e-01  1.6590243200413882e-03  1.3830185358704679e-04  4.8715416239591393e-02  8.0859730519336717e-02  -2.6197805835458138e-01  -8.9372167833904323e-02  1.2031724656157730e-01  4.3842296907196460e-02  1.8488075868432655e-02  2.2792659397459785e-03  1.3488557763614228e-01  3.8106586025029608e-02  -8.2625767615143210e-03  -5.3069458753991927e-01  5.1903179435049018e-02  5.7153462044405634e-02  4.9289191402927139e-02  1.4920914190346850e-02  -1.3715593350027372e-02  9.0253394582760119e-02  4.6920008555499979e-02  -6.0481391930715571e-03  4.5056509246976385e-02  1.3117875289878820e-02  -6.4286906333613338e-03  8.5281470747332133e-01  2.6328061763426969e-01  7.4691645612491708e-03  1.1533171621951667e-02  -1.2511534804106994e-02  -1.7879877651444578e-03  2.5574371385768933e-02  -7.7413574985806099e-03  8.5531508529722367e-01  -1.5886555493464275e-03  -1.1066567968002156e-01  1.0825157732750815e-01  -7.8219662912876360e-03  3.5592032669764337e-02  7.1154040727725082e-03  4.4819055545857550e-02  1.5054858120595338e-01  -1.3927069020175795e-02  1.1793804168750750e-01  -7.3887202740455071e-02  9.0015273481319213e-02  1.5664626496289641e-01  1.2806958106446867e-02  -9.8994043759414174e-03  4.1084573617981575e-02  4.7030650301590662e-02  4.0476795117505550e-02  -5.6423511203319973e-03  3.3790735489009474e-02  3.9383350188933804e-02  -3.5124770347834516e-01  4.7592495218934550e-02  -1.3575907919796690e-01  2.2464981383708135e-01  1.0886582380570636e-01  7.1353009869743383e-02  -6.5068113453945253e-01  6.8510149603002474e-02  -7.1659832224331543e-01  4.0910521221758519e-04  -1.6701403182029687e-01  -1.2939649399692646e-01  -2.6058727832208761e-01  6.8043358933211340e-02  7.8435570311413211e-02  8.7315073849211611e-02  1.3326361886134283e-01  -5.8063835318777077e-03  1.9857814624130731e-02  1.0805465820080564e-02  -6.6002237651510892e-02  4.4374826709835252e-02  -5.8503981530378486e-03  -1.0423805046655141e-02  -3.8185113123724290e-01  1.4158755364347156e-01  -2.4143680691153174e-02  1.3156528813672522e-01  1.9551500774585812e-01  -3.3525030093033508e-03  8.3038739764712665e-03  5.6133606468034628e-02  1.3614636064038246e-01  1.4768427440213433e-01  1.2076711425256938e-01  -4.9022952034631214e-03  3.4733573538699720e-02  5.3402645589307400e-02  3.6307906305087484e-01  -5.6285173681168928e-02  -1.8798113544405283e-04  9.5300893426551389e-03  -4.3859101433250461e-03  4.8407841297789361e-01  2.3111022139407002e-02  -4.5492964460282989e-03  3.8006070186818487e-02  8.7676020825525100e-02  -5.0176471106303890e-02  -1.3345416101069615e-02  3.0557791179412829e-02  -1.6433988621438248e-02  -7.4605015561774578e-03  2.4396871950327255e-02  5.3926999575153303e-02  2.7636254543890720e-01  1.1213333051141671e-02  1.7254937433669487e-02  -6.7820643106319221e-03  -8.3585649953904257e-04  -6.9467958949809422e-03  4.0542524829527124e-02  -2.9179005242878597e-01  4.3862117764586032e-03  5.5382668752682462e-01  3.0214501918109281e-02  -3.3890897001029553e-03  1.3915389030900340e-02  2.8260837747420955e-02  2.2587174468827251e-01  1.7021795774181524e-02  -1.0916173289924136e-02  4.1601353740560432e-01  6.4595661845007132e-02  2.6132848847213282e-02  7.6823509450195934e-02  4.8857120549398232e-02  -3.6730124618594082e-03  -1.5813254626760795e-02  3.4227672583650101e-02  7.9351725337947687e-01  6.2299607675961333e-01  -8.2773941985106302e-03  5.3245299745429322e-03  2.6485586343166518e-02  -4.6143002955276585e-01  -1.9488765150157725e-01  3.1338836456145477e-02  -4.4193244725054329e-03  4.9256325315130210e-02  4.4747461417661581e-02  -1.0418483335768376e-02  -1.6395117094535408e-01  1.2153458664647767e-03  -3.1710725473783480e-03  6.5660016450234757e-03  3.3932189065313881e-02  -6.9220189840206517e-03  1.5374038498779152e-01  2.3057168251114793e-03  1.6076504684980761e-02  1.6030153290683216e-01  6.8467783823438141e-02  8.3143462824815509e-02  -9.5521386310127904e-04  -1.0720980273629133e-01  -1.2922670499658404e-02  1.0744372359954765e-01  -6.3323388683054534e-03  -5.5451240987281231e-03  8.6673172548451097e-02  1.2583061175126977e+00  1.9558532935412168e-02  -4.7531403310182886e-02  4.9307957752107404e-02  -1.1164681481054117e-01  8.2404018910896748e-01  3.0152161579528520e-03  3.3149890473788045e-02  7.6603588090198141e-02  -3.7300714547459424e-01  -1.4005833152608480e-02  -7.5586738254561294e-04  -8.4932443160700474e-03  1.9101176482999246e-02  7.8029317400029452e-01  4.6851713669942945e-02  -3.9502116255197423e-01  1.0758330564556789e-01  3.6252031427950450e-02  -7.8256392515217918e-03  1.1551520796845979e-01  1.2060046571585904e-01  2.2133167178329746e-02  9.4792710734698707e-02  -2.8482673752437773e-03  -8.0517731235202044e-03  3.0867036713559742e-01  1.2628047752203539e-01  2.4288349816950629e-02  -1.3373021431492568e-02  6.9150661726001941e-02  1.1217312519796710e-01  6.1277943495271041e-02  1.7062732470556445e-02  -1.8054575576010967e-01  1.5803345226911558e-01  -8.0314059769771122e-03  1.1294516907370477e-02  -9.8073473143534644e-03  4.4366195021923417e-03  9.4969225331448484e-02  3.9409116496206424e-02  1.7380373184679518e-01  4.3097029652291771e-02  -5.9520969720845263e-01  3.6593586231337447e-02  -1.8706565314364446e-01  3.5444400362336578e-02  -2.9804277027875056e-03  6.9469899064553836e-02  7.1319522637441402e-02  5.3587846963995163e-02  1.1399570871738289e-02  7.7680271528289520e-03  3.0465767514125774e-02  -5.8095790634594169e-01  9.8940904263301585e-02  2.7214085661960815e-02  1.32218882289