<?xml version="1.0"?>
<VTKFile type="UnstructuredGrid"  version="0.1"  >
<UnstructuredGrid>
<Piece  NumberOfPoints="12123" NumberOfCells="23692">
<Points>
<DataArray  type="Float64"  NumberOfComponents="3"  format="ascii">0 0 0  0 0.41 0  2.2 0 0  2.2 0.41 0  0.2 0.15 0  0.2 0.25 0  0 0.4000000000000008 0  0 0.3900000000000259 0  0 0.3800000000000606 0  0 0.3700000000000953 0  0 0.3600000000001082 0  0 0.3500000000001241 0  0 0.3400000000001558 0  0 0.3300000000001905 0  0 0.3200000000002133 0  0 0.3100000000002381 0  0 0.3000000000002728 0  0 0.2900000000003075 0  0 0.2800000000003204 0  0 0.2700000000003551 0  0 0.2600000000003897 0  0 0.2500000000004243 0  0 0.2400000000004419 0  0 0.2300000000004503 0  0 0.2200000000004849 0  0 0.2100000000005195 0  0 0.2000000000005203 0  0 0.1900000000004874 0  0 0.1800000000004544 0  0 0.1700000000004476 0  0 0.1600000000004316 0  0 0.1500000000003986 0  0 0.1400000000003795 0  0 0.1300000000003759 0  0 0.1200000000003428 0  0 0.1100000000003098 0  0 0.1000000000002768 0  0 0.09000000000024383 0  0 0.08000000000021068 0  0 0.07000000000020096 0  0 0.0600000000001879 0  0 0.05000000000015475 0  0 0.04000000000012166 0  0 0.03000000000008857 0  0 0.02000000000005536 0  0 0.01000000000002221 0  0.009999999999981288 0 0  0.01999999999996251 0 0  0.02999999999994353 0 0  0.0399999999999241 0 0  0.04999999999990434 0 0  0.05999999999988457 0 0  0.06999999999986481 0 0  0.07999999999984503 0 0  0.08999999999982462 0 0  0.09999999999980327 0 0  0.1099999999997819 0 0  0.1199999999997606 0 0  0.1299999999997423 0 0  0.1399999999997245 0 0  0.1499999999997079 0 0  0.1599999999996929 0 0  0.1699999999996795 0 0  0.179999999999666 0 0  0.1899999999996523 0 0  0.1999999999996356 0 0  0.209999999999619 0 0  0.2199999999996025 0 0  0.2299999999995879 0 0  0.2399999999995744 0 0  0.249999999999561 0 0  0.2599999999995468 0 0  0.2699999999995302 0 0  0.2799999999995105 0 0  0.2899999999994876 0 0  0.2999999999994596 0 0  0.3099999999994304 0 0  0.3199999999994012 0 0  0.3299999999993699 0 0  0.3399999999993343 0 0  0.3499999999992988 0 0  0.3599999999992632 0 0  0.3699999999992334 0 0  0.3799999999992042 0 0  0.3899999999991749 0 0  0.3999999999991457 0 0  0.4099999999991165 0 0  0.4199999999990872 0 0  0.429999999999058 0 0  0.4399999999990288 0 0  0.4499999999989995 0 0  0.4599999999989703 0 0  0.4699999999989373 0 0  0.4799999999989018 0 0  0.4899999999988663 0 0  0.4999999999988318 0 0  0.5099999999988025 0 0  0.5199999999987733 0 0  0.529999999998744 0 0  0.5399999999987057 0 0  0.5499999999986639 0 0  0.559999999998622 0 0  0.5699999999985838 0 0  0.5799999999985546 0 0  0.5899999999985253 0 0  0.5999999999984962 0 0  0.6099999999984668 0 0  0.6199999999984376 0 0  0.6299999999984084 0 0  0.6399999999983792 0 0  0.6499999999983499 0 0  0.6599999999983207 0 0  0.6699999999982915 0 0  0.6799999999982622 0 0  0.6899999999982329 0 0  0.6999999999982038 0 0  0.7099999999981744 0 0  0.7199999999981452 0 0  0.7299999999981162 0 0  0.7399999999980867 0 0  0.7499999999980577 0 0  0.7599999999980284 0 0  0.769999999997999 0 0  0.7799999999979699 0 0  0.7899999999979407 0 0  0.7999999999979114 0 0  0.8099999999978793 0 0  0.8199999999978375 0 0  0.8299999999977956 0 0  0.8399999999977538 0 0  0.8499999999977218 0 0  0.8599999999976925 0 0  0.8699999999976633 0 0  0.8799999999976341 0 0  0.8899999999976047 0 0  0.8999999999975756 0 0  0.9099999999975463 0 0  0.9199999999975172 0 0  0.9299999999974878 0 0  0.9399999999974586 0 0  0.9499999999974295 0 0  0.9599999999974002 0 0  0.969999999997371 0 0  0.9799999999973418 0 0  0.9899999999973124 0 0  0.9999999999972872 0 0  1.009999999997271 0 0  1.019999999997246 0 0  1.029999999997217 0 0  1.039999999997188 0 0  1.049999999997163 0 0  1.059999999997159 0 0  1.069999999997144 0 0  1.079999999997114 0 0  1.089999999997085 0 0  1.099999999997056 0 0  1.109999999997077 0 0  1.119999999997098 0 0  1.12999999999712 0 0  1.139999999997141 0 0  1.149999999997162 0 0  1.159999999997205 0 0  1.169999999997248 0 0  1.179999999997269 0 0  1.18999999999729 0 0  1.199999999997312 0 0  1.209999999997333 0 0  1.219999999997354 0 0  1.229999999997375 0 0  1.239999999997403 0 0  1.249999999997449 0 0  1.259999999997482 0 0  1.269999999997503 0 0  1.279999999997525 0 0  1.289999999997546 0 0  1.299999999997567 0 0  1.309999999997589 0 0  1.31999999999761 0 0  1.329999999997648 0 0  1.339999999997694 0 0  1.349999999997717 0 0  1.359999999997738 0 0  1.369999999997759 0 0  1.379999999997781 0 0  1.389999999997802 0 0  1.399999999997823 0 0  1.409999999997846 0 0  1.419999999997893 0 0  1.42999999999793 0 0  1.439999999997952 0 0  1.449999999997973 0 0  1.459999999997994 0 0  1.469999999998015 0 0  1.479999999998037 0 0  1.489999999998058 0 0  1.499999999998091 0 0  1.509999999998137 0 0  1.519999999998165 0 0  1.529999999998186 0 0  1.539999999998207 0 0  1.549999999998229 0 0  1.55999999999825 0 0  1.569999999998271 0 0  1.579999999998293 0 0  1.589999999998336 0 0  1.599999999998378 0 0  1.6099999999984 0 0  1.619999999998421 0 0  1.629999999998442 0 0  1.639999999998464 0 0  1.649999999998485 0 0  1.659999999998506 0 0  1.669999999998528 0 0  1.679999999998549 0 0  1.68999999999857 0 0  1.699999999998592 0 0  1.709999999998634 0 0  1.719999999998677 0 0  1.729999999998699 0 0  1.73999999999872 0 0  1.749999999998741 0 0  1.759999999998762 0 0  1.769999999998784 0 0  1.779999999998805 0 0  1.789999999998833 0 0  1.799999999998879 0 0  1.809999999998912 0 0  1.819999999998933 0 0  1.829999999998954 0 0  1.839999999998976 0 0  1.849999999998997 0 0  1.859999999999018 0 0  1.86999999999904 0 0  1.879999999999078 0 0  1.889999999999124 0 0  1.899999999999147 0 0  1.909999999999168 0 0  1.919999999999189 0 0  1.929999999999211 0 0  1.939999999999232 0 0  1.949999999999253 0 0  1.959999999999276 0 0  1.969999999999323 0 0  1.97999999999936 0 0  1.989999999999381 0 0  1.999999999999387 0 0  2.009999999999383 0 0  2.019999999999379 0 0  2.029999999999375 0 0  2.039999999999371 0 0  2.049999999999391 0 0  2.059999999999437 0 0  2.069999999999521 0 0  2.079999999999617 0 0  2.089999999999663 0 0  2.099999999999694 0 0  2.109999999999689 0 0  2.119999999999686 0 0  2.129999999999681 0 0  2.139999999999722 0 0  2.149999999999776 0 0  2.159999999999873 0 0  2.169999999999948 0 0  2.179999999999994 0 0  2.190000000000004 0 0  2.2 0.009999999999981952 0  2.2 0.01999999999996097 0  2.2 0.02999999999994221 0  2.2 0.03999999999992531 0  2.2 0.04999999999991126 0  2.2 0.05999999999988534 0  2.2 0.06999999999985251 0  2.2 0.07999999999982024 0  2.2 0.08999999999980195 0  2.2 0.0999999999997695 0  2.2 0.1099999999997346 0  2.2 0.1199999999997104 0  2.2 0.1299999999996865 0  2.2 0.1399999999996516 0  2.2 0.1499999999996167 0  2.2 0.1599999999995818 0  2.2 0.169999999999564 0  2.2 0.1799999999995553 0  2.2 0.1899999999995205 0  2.2 0.1999999999994856 0  2.2 0.2099999999994845 0  2.2 0.2199999999995173 0  2.2 0.2299999999995501 0  2.2 0.2399999999995566 0  2.2 0.2499999999995723 0  2.2 0.259999999999605 0  2.2 0.2699999999996239 0  2.2 0.2799999999996273 0  2.2 0.2899999999996601 0  2.2 0.2999999999996928 0  2.2 0.3099999999997256 0  2.2 0.3199999999997584 0  2.2 0.3299999999997912 0  2.2 0.3399999999998008 0  2.2 0.3499999999998136 0  2.2 0.3599999999998464 0  2.2 0.3699999999998793 0  2.2 0.3799999999999122 0  2.2 0.3899999999999451 0  2.2 0.3999999999999779 0  2.190000000000005 0.41 0  2.180000000000009 0.41 0  2.170000000000015 0.41 0  2.160000000000019 0.41 0  2.150000000000024 0.41 0  2.140000000000029 0.41 0  2.130000000000033 0.41 0  2.120000000000038 0.41 0  2.110000000000043 0.41 0  2.100000000000048 0.41 0  2.090000000000087 0.41 0  2.080000000000142 0.41 0  2.070000000000197 0.41 0  2.06000000000024 0.41 0  2.050000000000245 0.41 0  2.040000000000249 0.41 0  2.030000000000254 0.41 0  2.020000000000259 0.41 0  2.010000000000264 0.41 0  2.000000000000268 0.41 0  1.990000000000273 0.41 0  1.980000000000278 0.41 0  1.970000000000283 0.41 0  1.960000000000287 0.41 0  1.950000000000292 0.41 0  1.940000000000302 0.41 0  1.930000000000332 0.41 0  1.920000000000362 0.41 0  1.910000000000392 0.41 0  1.900000000000422 0.41 0  1.890000000000452 0.41 0  1.880000000000482 0.41 0  1.870000000000503 0.41 0  1.860000000000508 0.41 0  1.850000000000529 0.41 0  1.840000000000559 0.41 0  1.830000000000588 0.41 0  1.820000000000618 0.41 0  1.810000000000648 0.41 0  1.800000000000678 0.41 0  1.790000000000708 0.41 0  1.780000000000719 0.41 0  1.770000000000725 0.41 0  1.760000000000755 0.41 0  1.750000000000785 0.41 0  1.740000000000815 0.41 0  1.730000000000845 0.41 0  1.720000000000875 0.41 0  1.710000000000905 0.41 0  1.700000000000931 0.41 0  1.690000000000936 0.41 0  1.680000000000951 0.41 0  1.670000000000981 0.41 0  1.660000000001048 0.41 0  1.650000000001128 0.41 0  1.640000000001208 0.41 0  1.630000000001275 0.41 0  1.620000000001305 0.41 0  1.610000000001321 0.41 0  1.600000000001325 0.41 0  1.590000000001351 0.41 0  1.580000000001384 0.41 0  1.57000000000144 0.41 0  1.560000000001495 0.41 0  1.55000000000155 0.41 0  1.540000000001588 0.41 0  1.530000000001618 0.41 0  1.520000000001623 0.41 0  1.510000000001634 0.41 0  1.500000000001664 0.41 0  1.490000000001708 0.41 0  1.480000000001763 0.41 0  1.470000000001818 0.41 0  1.460000000001871 0.41 0  1.450000000001901 0.41 0  1.440000000001922 0.41 0  1.430000000001926 0.41 0  1.420000000001947 0.41 0  1.410000000001977 0.41 0  1.400000000002031 0.41 0  1.390000000002086 0.41 0  1.380000000002141 0.41 0  1.370000000002184 0.41 0  1.360000000002214 0.41 0  1.350000000002224 0.41 0  1.340000000002231 0.41 0  1.33000000000226 0.41 0  1.320000000002299 0.41 0  1.310000000002354 0.41 0  1.300000000002394 0.41 0  1.290000000002424 0.41 0  1.280000000002431 0.41 0  1.270000000002435 0.41 0  1.26000000000244 0.41 0  1.250000000002457 0.41 0  1.240000000002487 0.41 0  1.230000000002536 0.41 0  1.22000000000259 0.41 0  1.21000000000262 0.41 0  1.200
[...]
<PointData  Scalars="p"> 
<DataArray  type="Float64"  Name="p"  format="ascii">3.9973830859244125e-01  3.8393253711851494e-01  0.0000000000000000e+00  0.0000000000000000e+00  -9.6141238949173935e-01  -8.9594883890302479e-01  3.8381454930611753e-01  3.8415069647607752e-01  3.8570887284669836e-01  3.8920630297369962e-01  3.9525409237860298e-01  4.0415531649606090e-01  4.1647505726281148e-01  4.3228476656999487e-01  4.5174532099483844e-01  4.7467638562512932e-01  5.0072429127904006e-01  5.2932582127777950e-01  5.5968144009035181e-01  5.9084180969585109e-01  6.2167221825592645e-01  6.5048488196190157e-01  6.7663880025885670e-01  6.9837578570206216e-01  7.1471028996814301e-01  7.2473185767504833e-01  7.2698142813653732e-01  7.2296478529748875e-01  7.1174679132892049e-01  6.9407354808328614e-01  6.7124831934634066e-01  6.4478505358405369e-01  6.1557409819901399e-01  5.8491655624501815e-01  5.5464293616241034e-01  5.2541876579089120e-01  4.9838707254811987e-01  4.7420525593694390e-01  4.5345296069507979e-01  4.3626806829969778e-01  4.2279389229966169e-01  4.1281989236099326e-01  4.0603082195688511e-01  4.0198838846897617e-01  4.0009213493028772e-01  3.9961360852243538e-01  3.9920823345030138e-01  3.9849011378381094e-01  3.9725376619384795e-01  3.9534307913873118e-01  3.9261162606595157e-01  3.8886077787781481e-01  3.8395970522262873e-01  3.7774297334641310e-01  3.6991761019632113e-01  3.6057026194078423e-01  3.4892421502786292e-01  3.3564338757770773e-01  3.1985381979342126e-01  3.0185986686559363e-01  2.8169819985055211e-01  2.5918870929622201e-01  2.3497235879668654e-01  2.0887315334812112e-01  1.8182132117257915e-01  1.5368541019734194e-01  1.2552577287963226e-01  9.7644040564921306e-02  7.0357914138867980e-02  4.4513183994289086e-02  2.0473357022995332e-02  -1.7937387475355760e-03  -2.1413154929874119e-02  -3.9250497731221162e-02  -5.3794932424899099e-02  -6.5680320265177380e-02  -7.4889743316614271e-02  -8.1910533443798464e-02  -8.5881726358931806e-02  -8.8496181460150924e-02  -8.7936690250429439e-02  -8.6207009438074897e-02  -8.3158649150558692e-02  -7.7972339362453652e-02  -7.2960107829107140e-02  -6.6789716098351673e-02  -6.0202771855227211e-02  -5.4217969878063828e-02  -4.8031232792948311e-02  -4.2673842146966151e-02  -3.7980571019634667e-02  -3.4243580769624068e-02  -3.1720295997816186e-02  -3.0308720210965555e-02  -3.0309813254420625e-02  -3.1549981214870487e-02  -3.4347181614975353e-02  -3.8691475729335949e-02  -4.4425935494221497e-02  -5.1165384568203631e-02  -5.9421223007739624e-02  -6.9003248840029632e-02  -7.8345812738231518e-02  -8.8514130719895251e-02  -9.8106445378006280e-02  -1.0687058568968512e-01  -1.1405028788653364e-01  -1.1961126171417460e-01  -1.2224923691371740e-01  -1.2237027440269804e-01  -1.1943521145346798e-01  -1.1362467839920835e-01  -1.0488778309582004e-01  -9.3563045990043253e-02  -8.0180550647322713e-02  -6.4874888995206728e-02  -4.8238899704377912e-02  -3.0983269736969545e-02  -1.3407661199028253e-02  3.8630894708841191e-03  2.0502644489109177e-02  3.6211126398913933e-02  5.0761747771583238e-02  6.3760648393591607e-02  7.5025100312209658e-02  8.5112570673870153e-02  9.3292282397299559e-02  9.9707645932444786e-02  1.0491200791870775e-01  1.0818424016916170e-01  1.1037113959295015e-01  1.1074396441381168e-01  1.0989152605535983e-01  1.0761147972553553e-01  1.0408167664370922e-01  9.9362412179435894e-02  9.3310213574039930e-02  8.6319781649236704e-02  7.8499053810946781e-02  6.9961009750199518e-02  6.0760035611737206e-02  5.1174453878379642e-02  4.1650923102354090e-02  3.2135207587845195e-02  2.3202351094580694e-02  1.4701851031102874e-02  7.1897583168168020e-03  3.7572723879876013e-04  -5.1768979530376260e-03  -9.3319768765412307e-03  -1.2422300040449197e-02  -1.4131586452860088e-02  -1.4567579082030069e-02  -1.3875348732688950e-02  -1.2199827786178145e-02  -9.5874977728709690e-03  -6.2608923726362462e-03  -2.4344308276733431e-03  1.6570431055682867e-03  5.9689668853422978e-03  1.0198406153469527e-02  1.4122563648856537e-02  1.7769255795249680e-02  2.0886760017073396e-02  2.3360037239425212e-02  2.5277777287530043e-02  2.6414450527825602e-02  2.6904440579070266e-02  2.6700937979870897e-02  2.5890724594850076e-02  2.4461523276929607e-02  2.2498918263066891e-02  2.0207157585963649e-02  1.7501082705566204e-02  1.4564921669484769e-02  1.1494533688020066e-02  8.3957772065068655e-03  5.2824676658209556e-03  2.2221390889629032e-03  -6.0571553603939608e-04  -3.2213562603282120e-03  -5.6727089969869733e-03  -7.7230067166491924e-03  -9.5746263198576240e-03  -1.1092216493686597e-02  -1.2286612780916655e-02  -1.3271432589555574e-02  -1.3972837756662302e-02  -1.4430011669296796e-02  -1.4692705662983734e-02  -1.4785426483073601e-02  -1.4731053016408046e-02  -1.4600028609267138e-02  -1.4363714167910305e-02  -1.4102721397353695e-02  -1.3816232620316152e-02  -1.3542202116601176e-02  -1.3289688780837163e-02  -1.3079542719696259e-02  -1.2925290842928202e-02  -1.2825934030648745e-02  -1.2797666965350292e-02  -1.2828608395362503e-02  -1.2909713202664794e-02  -1.3057165257637636e-02  -1.3243852587339866e-02  -1.3455618576053586e-02  -1.3700187943896021e-02  -1.3938258396145316e-02  -1.4169407014661463e-02  -1.4367778658135533e-02  -1.4531434921676552e-02  -1.4644734667406688e-02  -1.4670312192317602e-02  -1.4635023974892743e-02  -1.4495874673377009e-02  -1.4252914500962719e-02  -1.3914821858104689e-02  -1.3464358787779311e-02  -1.2915688726771544e-02  -1.2253160140424896e-02  -1.1484155866727080e-02  -1.0622406614393487e-02  -9.6657045226544534e-03  -8.6406675438708974e-03  -7.5354468399114177e-03  -6.3919241193053835e-03  -5.1725824586957335e-03  -3.9425662880935809e-03  -2.6848149914328969e-03  -1.4390508369942286e-03  -1.7744182158394261e-04  1.0628195446973133e-03  2.2820974954437865e-03  3.4584758221345847e-03  4.5933852375308710e-03  5.6917466872880877e-03  6.7044382463479178e-03  7.6790403310444339e-03  8.5913570740223724e-03  9.4286308277730067e-03  1.0210873630993831e-02  1.0917607631867719e-02  1.1544325479452949e-02  1.2125195812010157e-02  1.2638356137814851e-02  1.3066622582088076e-02  1.3455293329992422e-02  1.3777058214317704e-02  1.4037920999271997e-02  1.4254555208167921e-02  1.4400787904872403e-02  1.4524710204386079e-02  1.4588099901936860e-02  1.4607214557791213e-02  1.4601083093448954e-02  1.4543035928671408e-02  1.4470571501194988e-02  1.4362121324186501e-02  1.4209201441681632e-02  1.4045994055619477e-02  1.3830278758709512e-02  1.3574629846190372e-02  1.3275907264902170e-02  1.2035407662049516e-02  0.0000000000000000e+00  0.0000000000000000e+00  0.0000000000000000e+00  0.0000000000000000e+00  0.0000000000000000e+00  0.0000000000000000e+00  0.0000000000000000e+00  0.0000000000000000e+00  0.0000000000000000e+00  0.0000000000000000e+00  0.0000000000000000e+00  0.0000000000000000e+00  0.0000000000000000e+00  0.0000000000000000e+00  0.0000000000000000e+00  0.0000000000000000e+00  0.0000000000000000e+00  0.0000000000000000e+00  0.0000000000000000e+00  0.0000000000000000e+00  0.0000000000000000e+00  0.0000000000000000e+00  0.0000000000000000e+00  0.0000000000000000e+00  0.0000000000000000e+00  0.0000000000000000e+00  0.0000000000000000e+00  0.0000000000000000e+00  0.0000000000000000e+00  0.0000000000000000e+00  0.0000000000000000e+00  0.0000000000000000e+00  0.0000000000000000e+00  0.0000000000000000e+00  0.0000000000000000e+00  0.0000000000000000e+00  0.0000000000000000e+00  0.0000000000000000e+00  0.0000000000000000e+00  0.0000000000000000e+00  1.3991418849027170e-02  1.4425704926826828e-02  1.4790660461834531e-02  1.5295479107761212e-02  1.5602761839236874e-02  1.5871102925565303e-02  1.6060648846926019e-02  1.6180354784582310e-02  1.6250779044133440e-02  1.6228562501272834e-02  1.6153298767141399e-02  1.6001497573617351e-02  1.5766275787385344e-02  1.5488542103787809e-02  1.5101019770580945e-02  1.4675444838340686e-02  1.4136501265573420e-02  1.3561992367889858e-02  1.2889291072076672e-02  1.2170302296775772e-02  1.1369298293287996e-02  1.0500902737634814e-02  9.5803968753925342e-03  8.5858031175161907e-03  7.5330416305943197e-03  6.4558594557182197e-03  5.2815789620641405e-03  4.0777732164925164e-03  2.8498590178490431e-03  1.5532177011238837e-03  2.0428430849940676e-04  -1.1245395646977529e-03  -2.5399728646250883e-03  -3.9487706857311193e-03  -5.3913713827530556e-03  -6.8283077811713416e-03  -8.2999641640465055e-03  -9.7554607281818053e-03  -1.1213837381831460e-02  -1.2661332320186474e-02  -1.4057751324046328e-02  -1.5452933634466195e-02  -1.6787678598042116e-02  -1.8064895472517845e-02  -1.9258250091552562e-02  -2.0372474847078298e-02  -2.1403397493027762e-02  -2.2302525269839904e-02  -2.3091751608497912e-02  -2.3716447986790182e-02  -2.4193095338650571e-02  -2.4514092622911651e-02  -2.4658841640908428e-02  -2.4612737494464059e-02  -2.4428432323052654e-02  -2.3981075290246970e-02  -2.3394353908280225e-02  -2.2627213588508673e-02  -2.1683318311619994e-02  -2.0597978088947949e-02  -1.9368735328788869e-02  -1.8056385105623417e-02  -1.6632779559631893e-02  -1.5140052843394012e-02  -1.3648796435433741e-02  -1.2173165629110029e-02  -1.0729068250334530e-02  -9.3724384093382407e-03  -8.0997484111051780e-03  -6.9756665204799197e-03  -6.0332928192107539e-03  -5.2582524820479178e-03  -4.6847086099044213e-03  -4.3234432719276876e-03  -4.1829062892342565e-03  -4.2372029247426841e-03  -4.5066523327963190e-03  -4.9678063475537809e-03  -5.5717757030978943e-03  -6.3159991630899357e-03  -7.1506741517651110e-03  -8.0419798857241428e-03  -8.9454813594802632e-03  -9.8169150431599364e-03  -1.0600809030695926e-02  -1.1264010337869047e-02  -1.1756550210069078e-02  -1.2011108256724528e-02  -1.2014211624196516e-02  -1.1732645980930967e-02  -1.1202778420230628e-02  -1.0224228037283786e-02  -8.9467345731471526e-03  -7.3607605272254491e-03  -5.2980878769432150e-03  -2.9795198775968892e-03  -2.4151255614672401e-04  2.6861164446197482e-03  6.1084218127421524e-03  9.6644307048323556e-03  1.3529549917366952e-02  1.7545121589275282e-02  2.1771676627149475e-02  2.6108151306706861e-02  3.0487456288476544e-02  3.4948352680298105e-02  3.9412032559707114e-02  4.3706628855907738e-02  4.7878595442259649e-02  5.1797208966991082e-02  5.5450797944253137e-02  5.8701989192660183e-02  6.1490424369502118e-02  6.3586994293455115e-02  6.5100916639074261e-02  6.5750605277686197e-02  6.5510483876845535e-02  6.4192113305116372e-02  6.1984016659434822e-02  5.8454570346701824e-02  5.3832615056197637e-02  4.8087703217324439e-02  4.0951622874766926e-02  3.3217667225969007e-02  2.4235561175808877e-02  1.4784389009283458e-02  4.8215702090122527e-03  -4.9443456872892977e-03  -1.4822032803552003e-02  -2.3717985774705165e-02  -3.1753962443574722e-02  -3.8378928377015821e-02  -4.3305301184543191e-02  -4.5797797179578686e-02  -4.6788488403997366e-02  -4.4137515340269336e-02  -3.9500314500138932e-02  -3.2258738731315982e-02  -2.2411702875640361e-02  -1.0714507373982640e-02  3.3194748447478626e-03  1.8094099650070979e-02  3.4517961452707267e-02  5.1004439421860524e-02  6.7029385084652907e-02  8.3156769144490050e-02  9.7740634700233642e-02  1.1052708012935733e-01  1.2196066530840605e-01  1.3085304304448153e-01  1.3752625525212941e-01  1.4156283342396092e-01  1.4339179692503146e-01  1.4233677863322372e-01  1.3872599875090538e-01  1.3267852544037700e-01  1.2412852504741116e-01  1.1340322785052492e-01  1.0000895347884943e-01  8.5117312167104553e-02  6.8483074232840224e-02  5.0110457897221392e-02  3.0603887136667032e-02  1.0376138618693203e-02  -1.0105952654122539e-02  -3.1022933519729061e-02  -5.1087618063625842e-02  -7.0521260904222977e-02  -8.8906247820928874e-02  -1.0597986033345824e-01  -1.2152530016852882e-01  -1.3510036787080884e-01  -1.4697514401530301e-01  -1.5691190991403656e-01  -1.6494832467086160e-01  -1.7115443992995663e-01  -1.7553535435622861e-01  -1.7819619691710226e-01  -1.7877414644287085e-01  -1.7809278949484919e-01  -1.7517966538232468e-01  -1.7083137060255518e-01  -1.6448203547292406e-01  -1.5654154976082033e-01  -1.4659032031249986e-01  -1.3490785202929692e-01  -1.2139505735289390e-01  -1.0585671228392968e-01  -8.8664549428902895e-02  -6.9692104936175558e-02  -4.9132984801401429e-02  -2.7103876529048349e-02  -3.4842990627095521e-03  2.0907390023061495e-02  4.6901933433465465e-02  7.3000845535772060e-02  1.0027815381719736e-01  1.2706508942816336e-01  1.5401861177992895e-01  1.8011821227379912e-01  2.0553951451343366e-01  2.2945164001077911e-01  2.5184715452524364e-01  2.7270941522627828e-01  2.9101707235737773e-01  3.0784542354268135e-01  3.2249113093901427e-01  3.3487692846109712e-01  3.4546394525348567e-01  3.5427819954977691e-01  3.6163247124551318e-01  3.6743024102283534e-01  3.7215624722493867e-01  3.7559570242226248e-01  3.7841538742167791e-01  3.8037082772400432e-01  3.8180072867576748e-01  3.8276177027686242e-01  3.8337505553037271e-01  -1.0129291769154463e+00  -9.5926512958417154e-01  -6.6170404244710146e-01  -1.3217437611925123e-01  6.0975569310373157e-01  1.2584897760076426e+00  1.7400567608382991e+00  1.9148055746207617e+00  1.7282739240968610e+00  1.2396796789559639e+00  5.9539217963387214e-01  -1.3086962720312800e-01  -6.9712041434217775e-01  -9.7537557825551580e-01  -1.0716132476857778e+00  -8.1109233522364876e-01  -6.8698731052041928e-01  -6.0510138944190828e-01  -5.5793893616076995e-01  -5.2481736767454801e-01  -4.9007323905493155e-01  -4.6004140641715868e-01  -4.4625591373217233e-01  -4.4641457666891526e-01  -4.4847962359363747e-01  -4.4712517029359999e-01  -4.5740830836972307e-01  -4.9686973835480552e-01  -5.8163498027585281e-01  -7.0930453147962336e-01  -3.4162757350302336e-01  -1.6723761187495377e-02  -1.1520738306641727e-02  -4.0374898796410132e-02  8.1923517740484795e-04  2.8313454491911971e-02  2.2319951012704269e-02  -3.1780799850477186e-03  8.5335966506155589e-03  -8.4843852170851906e-03  -1.2513898439154424e-02  -1.0827696798928076e-02  -1.1823836572914760e-02  9.3291982017820723e-03  -5.2418788189926525e-03  1.4402997473475194e-02  -6.1167753014164961e-01  1.8474706206445737e-01  4.6664662585722952e-02  2.4348891055542676e-02  4.4818870796126238e-02  -1.9034899596100208e-01  -1.3664259948878944e-02  1.0199079131166723e-01  -2.0950128931669607e-01  5.4947495463262407e-02  -1.3618653095846936e-02  -5.4265592479314263e-04  -2.1552856595752963e-02  -6.2118313630884015e-03  -2.0873223190868502e-03  -1.5149434674466578e-02  -2.0316998744148901e-01  2.3644551179917737e-02  -4.1382473409845584e-02  4.3690434934366734e-01  8.6992089879694076e-03  4.5645345555837363e-01  2.6068369558784176e-02  5.3506948014618366e-03  -7.9222317862841340e-02  -2.3747668724371243e-02  1.3750008271603088e-02  3.6540231305336207e-02  -1.1002810471218971e-01  -1.8621769762531812e-01  -2.2849572955040218e-01  5.7224837766144801e-02  1.5173972643269959e-01  -8.9258704471167800e-03  1.2543030174022515e-02  8.9627283448400805e-02  -6.0968661434821448e-03  -5.5680455970575134e-03  -5.3828608291555280e-01  -2.1958744931327717e-01  4.0600692062513176e-02  5.3107288489963687e-03  6.9829127392827886e-02  7.2159422072819220e-03  1.5202271784527951e-01  -1.4542284179608952e-02  5.8294719811470570e-03  -5.9029115762148044e-03  -1.3219706490898658e-02  -1.3971883077235653e-02  8.5334506628589935e-01  1.5456163638974532e-01  -1.3011661120547061e-02  -1.1944182713654930e-02  -1.1561128070761392e-02  1.3010224488173312e-02  -1.3871072116480232e-02  -8.0189444460547262e-03  8.1017299566612277e-01  4.3954719909540373e-03  1.4753232173786382e-01  5.4821148121458114e-02  -1.4601521445726261e-02  4.7169584719751925e-02  -1.4417714610667013e-02  -4.6724129163809034e-03  -4.6647672066220142e-02  5.8410196113688334e-02  -5.7824209246231342e-02  -2.4698410321107511e-01  -2.2838469625044915e-02  -8.3104752384663805e-02  -3.3823494702416054e-03  4.2181907296676233e-03  -1.1653968322102920e-02  1.1461270084693323e-02  2.8811873221903726e-02  1.4021519506283397e-02  3.9340376949852963e-02  -3.0087803198147337e-03  -8.3077595275226668e-01  2.5298333453820817e-02  -9.3111220220236532e-02  2.9622175555464696e-02  -5.0135871064126827e-02  7.7614994910508526e-03  -8.0794103606830106e-02  -2.5728309845825330e-03  -4.4564706985870101e-01  -1.8087627019982483e-02  -1.9503132041997270e-01  -4.7623767606152126e-02  -5.0899906807632311e-01  6.2084727673971801e-02  6.8131469554071192e-02  3.1510268086872739e-04  1.8244258944200713e-02  3.6499432168172700e-03  -6.6141336935868879e-03  9.0415090750993535e-02  -8.7117751438720428e-02  1.9584433869047690e-02  5.4638099662547195e-03  -5.8949308378519888e-03  -1.8756675784216420e-01  7.1570686588321719e-02  1.4965229731500512e-01  8.8707469522632271e-03  3.3528937929885219e-02  -1.4980316155451569e-02  -2.5786393387123924e-02  7.6523287849355581e-02  1.3400976111622494e-02  -1.6860869455510846e-01  -4.0248049110507720e-03  -1.9610866311735690e-02  -1.4929067007191373e-02  1.1664790480332993e-01  3.9171118517647330e-01  -1.2909763313874686e-01  6.7217696056661586e-03  -1.6149990037454178e-02  6.9865987340881047e-03  4.0932154933061088e-01  -1.0965653326745617e-02  7.4061672572427496e-03  1.0465199353753101e-02  2.4196691067008769e-02  9.5980122284171618e-02  4.7627112785622261e-02  -7.2596889550447987e-03  2.0912588477587412e-03  -5.2692320117896244e-03  -9.0498461654908886e-03  -1.4090247181281074e-02  3.1829212133889129e-01  -2.0832573317855138e-02  -1.0694324769989544e-02  -1.1471772073843776e-03  -1.4578172881835643e-02  -8.4544200891097576e-04  1.3789483870590920e-02  -1.8833247690753518e-01  1.5789471543570254e-02  5.6961176909468081e-01  -5.5546939182294763e-01  9.7952465863190633e-03  -1.4084118369516849e-02  -9.5694539399401816e-03  2.8192251670616597e-01  -1.2608986787730715e-02  -4.9125052063001928e-04  3.2697696336204518e-01  6.2228329815354158e-02  2.4101714054471042e-02  -1.5173306832786657e-01  -2.4320157788867557e-02  1.1891281909012537e-02  -4.7922007387503534e-03  -9.4140358203624510e-03  7.2279183651923462e-01  5.6134461098738397e-01  -1.0375724583851192e-02  1.4283851768161493e-02  2.0560640883887104e-02  -3.3978877431909554e-01  -2.1019968714411866e-01  -1.5703393562841898e-02  -1.0160222619766679e-03  1.0555424913808861e-02  2.9371135285243762e-02  1.1462797422582530e-02  -3.1929153210751415e-01  1.4353942767725392e-02  -1.8229678138036998e-02  -2.3054933459515127e-02  3.0686276042844140e-02  -1.4142525784697053e-02  6.4024923195874064e-02  7.9003251269981686e-03  -4.7850332896137915e-03  -4.2831760751565073e-01  8.4618001873229560e-03  -1.3256038119322183e-01  1.5824295307477840e-02  -4.9096728962008569e-02  1.2103359737058356e-01  4.8540263919865552e-02  4.3429802969358307e-03  -1.5268709472640045e-02  -1.9584903232862147e-02  1.2342717196870401e+00  -9.2059976024283195e-03  -7.1397156783782459e-02  2.8058738124028666e-02  -8.3644666277730442e-02  8.0240841783892125e-01  -2.4662207995893096e-02  7.8419509847433733e-02  4.2049523175692848e-02  -7.7664175997534515e-02  2.8513414500752295e-03  1.1300403378656997e-02  -2.9100391025315723e-03  -3.5219164524789323e-03  8.0670250465354643e-01  2.6934512015147710e-02  -3.6717735894650494e-01  6.5532809134754275e-02  -1.1934685723405031e-02  -1.1472624505807752e-02  -6.1884996831724423e-02  4.3088576349375955e-02  1.7194927071101257e-01  1.2399761425982785e-01  6.1960052843514886e-03  -1.6190634644202975e-02  2.0571818204971479e-01  1.3064982490305205e-01  8.2792247209831152e-02  -7.7002313105354906e-03  -1.0419052546548598e-03  9.6257792128290484e-02  -5.6462838551572830e-02  -8.2708920395280355e-03  -2.6001516029315325e-01  8.8487134717988400e-02  -8.5047671969356656e-03  -8.0598955855774868e-03  1.0204023780854287e-02  1.2590426459660214e-02  -2.8677805517002778e-02  1.4259251192468259e-02  4.9541709217589644e-02  7.5467104358042407e-03  -4.6747853323617200e-01  -7.4047837910388948e-03  -1.4586540675707879e-01  6.7690359301298903e-03  1.0284719757222402e-02  9.7150605797294967e-02  -1.0545972461016720e-02  6.7424837248109978e-02  -3.3402757108621273e-01  -1.5761