<?xml version="1.0"?>
<VTKFile type="UnstructuredGrid"  version="0.1"  >
<UnstructuredGrid>
<Piece  NumberOfPoints="12123" NumberOfCells="23692">
<Points>
<DataArray  type="Float64"  NumberOfComponents="3"  format="ascii">0 0 0  0 0.41 0  2.2 0 0  2.2 0.41 0  0.2 0.15 0  0.2 0.25 0  0 0.4000000000000008 0  0 0.3900000000000259 0  0 0.3800000000000606 0  0 0.3700000000000953 0  0 0.3600000000001082 0  0 0.3500000000001241 0  0 0.3400000000001558 0  0 0.3300000000001905 0  0 0.3200000000002133 0  0 0.3100000000002381 0  0 0.3000000000002728 0  0 0.2900000000003075 0  0 0.2800000000003204 0  0 0.2700000000003551 0  0 0.2600000000003897 0  0 0.2500000000004243 0  0 0.2400000000004419 0  0 0.2300000000004503 0  0 0.2200000000004849 0  0 0.2100000000005195 0  0 0.2000000000005203 0  0 0.1900000000004874 0  0 0.1800000000004544 0  0 0.1700000000004476 0  0 0.1600000000004316 0  0 0.1500000000003986 0  0 0.1400000000003795 0  0 0.1300000000003759 0  0 0.1200000000003428 0  0 0.1100000000003098 0  0 0.1000000000002768 0  0 0.09000000000024383 0  0 0.08000000000021068 0  0 0.07000000000020096 0  0 0.0600000000001879 0  0 0.05000000000015475 0  0 0.04000000000012166 0  0 0.03000000000008857 0  0 0.02000000000005536 0  0 0.01000000000002221 0  0.009999999999981288 0 0  0.01999999999996251 0 0  0.02999999999994353 0 0  0.0399999999999241 0 0  0.04999999999990434 0 0  0.05999999999988457 0 0  0.06999999999986481 0 0  0.07999999999984503 0 0  0.08999999999982462 0 0  0.09999999999980327 0 0  0.1099999999997819 0 0  0.1199999999997606 0 0  0.1299999999997423 0 0  0.1399999999997245 0 0  0.1499999999997079 0 0  0.1599999999996929 0 0  0.1699999999996795 0 0  0.179999999999666 0 0  0.1899999999996523 0 0  0.1999999999996356 0 0  0.209999999999619 0 0  0.2199999999996025 0 0  0.2299999999995879 0 0  0.2399999999995744 0 0  0.249999999999561 0 0  0.2599999999995468 0 0  0.2699999999995302 0 0  0.2799999999995105 0 0  0.2899999999994876 0 0  0.2999999999994596 0 0  0.3099999999994304 0 0  0.3199999999994012 0 0  0.3299999999993699 0 0  0.3399999999993343 0 0  0.3499999999992988 0 0  0.3599999999992632 0 0  0.3699999999992334 0 0  0.3799999999992042 0 0  0.3899999999991749 0 0  0.3999999999991457 0 0  0.4099999999991165 0 0  0.4199999999990872 0 0  0.429999999999058 0 0  0.4399999999990288 0 0  0.4499999999989995 0 0  0.4599999999989703 0 0  0.4699999999989373 0 0  0.4799999999989018 0 0  0.4899999999988663 0 0  0.4999999999988318 0 0  0.5099999999988025 0 0  0.5199999999987733 0 0  0.529999999998744 0 0  0.5399999999987057 0 0  0.5499999999986639 0 0  0.559999999998622 0 0  0.5699999999985838 0 0  0.5799999999985546 0 0  0.5899999999985253 0 0  0.5999999999984962 0 0  0.6099999999984668 0 0  0.6199999999984376 0 0  0.6299999999984084 0 0  0.6399999999983792 0 0  0.6499999999983499 0 0  0.6599999999983207 0 0  0.6699999999982915 0 0  0.6799999999982622 0 0  0.6899999999982329 0 0  0.6999999999982038 0 0  0.7099999999981744 0 0  0.7199999999981452 0 0  0.7299999999981162 0 0  0.7399999999980867 0 0  0.7499999999980577 0 0  0.7599999999980284 0 0  0.769999999997999 0 0  0.7799999999979699 0 0  0.7899999999979407 0 0  0.7999999999979114 0 0  0.8099999999978793 0 0  0.8199999999978375 0 0  0.8299999999977956 0 0  0.8399999999977538 0 0  0.8499999999977218 0 0  0.8599999999976925 0 0  0.8699999999976633 0 0  0.8799999999976341 0 0  0.8899999999976047 0 0  0.8999999999975756 0 0  0.9099999999975463 0 0  0.9199999999975172 0 0  0.9299999999974878 0 0  0.9399999999974586 0 0  0.9499999999974295 0 0  0.9599999999974002 0 0  0.969999999997371 0 0  0.9799999999973418 0 0  0.9899999999973124 0 0  0.9999999999972872 0 0  1.009999999997271 0 0  1.019999999997246 0 0  1.029999999997217 0 0  1.039999999997188 0 0  1.049999999997163 0 0  1.059999999997159 0 0  1.069999999997144 0 0  1.079999999997114 0 0  1.089999999997085 0 0  1.099999999997056 0 0  1.109999999997077 0 0  1.119999999997098 0 0  1.12999999999712 0 0  1.139999999997141 0 0  1.149999999997162 0 0  1.159999999997205 0 0  1.169999999997248 0 0  1.179999999997269 0 0  1.18999999999729 0 0  1.199999999997312 0 0  1.209999999997333 0 0  1.219999999997354 0 0  1.229999999997375 0 0  1.239999999997403 0 0  1.249999999997449 0 0  1.259999999997482 0 0  1.269999999997503 0 0  1.279999999997525 0 0  1.289999999997546 0 0  1.299999999997567 0 0  1.309999999997589 0 0  1.31999999999761 0 0  1.329999999997648 0 0  1.339999999997694 0 0  1.349999999997717 0 0  1.359999999997738 0 0  1.369999999997759 0 0  1.379999999997781 0 0  1.389999999997802 0 0  1.399999999997823 0 0  1.409999999997846 0 0  1.419999999997893 0 0  1.42999999999793 0 0  1.439999999997952 0 0  1.449999999997973 0 0  1.459999999997994 0 0  1.469999999998015 0 0  1.479999999998037 0 0  1.489999999998058 0 0  1.499999999998091 0 0  1.509999999998137 0 0  1.519999999998165 0 0  1.529999999998186 0 0  1.539999999998207 0 0  1.549999999998229 0 0  1.55999999999825 0 0  1.569999999998271 0 0  1.579999999998293 0 0  1.589999999998336 0 0  1.599999999998378 0 0  1.6099999999984 0 0  1.619999999998421 0 0  1.629999999998442 0 0  1.639999999998464 0 0  1.649999999998485 0 0  1.659999999998506 0 0  1.669999999998528 0 0  1.679999999998549 0 0  1.68999999999857 0 0  1.699999999998592 0 0  1.709999999998634 0 0  1.719999999998677 0 0  1.729999999998699 0 0  1.73999999999872 0 0  1.749999999998741 0 0  1.759999999998762 0 0  1.769999999998784 0 0  1.779999999998805 0 0  1.789999999998833 0 0  1.799999999998879 0 0  1.809999999998912 0 0  1.819999999998933 0 0  1.829999999998954 0 0  1.839999999998976 0 0  1.849999999998997 0 0  1.859999999999018 0 0  1.86999999999904 0 0  1.879999999999078 0 0  1.889999999999124 0 0  1.899999999999147 0 0  1.909999999999168 0 0  1.919999999999189 0 0  1.929999999999211 0 0  1.939999999999232 0 0  1.949999999999253 0 0  1.959999999999276 0 0  1.969999999999323 0 0  1.97999999999936 0 0  1.989999999999381 0 0  1.999999999999387 0 0  2.009999999999383 0 0  2.019999999999379 0 0  2.029999999999375 0 0  2.039999999999371 0 0  2.049999999999391 0 0  2.059999999999437 0 0  2.069999999999521 0 0  2.079999999999617 0 0  2.089999999999663 0 0  2.099999999999694 0 0  2.109999999999689 0 0  2.119999999999686 0 0  2.129999999999681 0 0  2.139999999999722 0 0  2.149999999999776 0 0  2.159999999999873 0 0  2.169999999999948 0 0  2.179999999999994 0 0  2.190000000000004 0 0  2.2 0.009999999999981952 0  2.2 0.01999999999996097 0  2.2 0.02999999999994221 0  2.2 0.03999999999992531 0  2.2 0.04999999999991126 0  2.2 0.05999999999988534 0  2.2 0.06999999999985251 0  2.2 0.07999999999982024 0  2.2 0.08999999999980195 0  2.2 0.0999999999997695 0  2.2 0.1099999999997346 0  2.2 0.1199999999997104 0  2.2 0.1299999999996865 0  2.2 0.1399999999996516 0  2.2 0.1499999999996167 0  2.2 0.1599999999995818 0  2.2 0.169999999999564 0  2.2 0.1799999999995553 0  2.2 0.1899999999995205 0  2.2 0.1999999999994856 0  2.2 0.2099999999994845 0  2.2 0.2199999999995173 0  2.2 0.2299999999995501 0  2.2 0.2399999999995566 0  2.2 0.2499999999995723 0  2.2 0.259999999999605 0  2.2 0.2699999999996239 0  2.2 0.2799999999996273 0  2.2 0.2899999999996601 0  2.2 0.2999999999996928 0  2.2 0.3099999999997256 0  2.2 0.3199999999997584 0  2.2 0.3299999999997912 0  2.2 0.3399999999998008 0  2.2 0.3499999999998136 0  2.2 0.3599999999998464 0  2.2 0.3699999999998793 0  2.2 0.3799999999999122 0  2.2 0.3899999999999451 0  2.2 0.3999999999999779 0  2.190000000000005 0.41 0  2.180000000000009 0.41 0  2.170000000000015 0.41 0  2.160000000000019 0.41 0  2.150000000000024 0.41 0  2.140000000000029 0.41 0  2.130000000000033 0.41 0  2.120000000000038 0.41 0  2.110000000000043 0.41 0  2.100000000000048 0.41 0  2.090000000000087 0.41 0  2.080000000000142 0.41 0  2.070000000000197 0.41 0  2.06000000000024 0.41 0  2.050000000000245 0.41 0  2.040000000000249 0.41 0  2.030000000000254 0.41 0  2.020000000000259 0.41 0  2.010000000000264 0.41 0  2.000000000000268 0.41 0  1.990000000000273 0.41 0  1.980000000000278 0.41 0  1.970000000000283 0.41 0  1.960000000000287 0.41 0  1.950000000000292 0.41 0  1.940000000000302 0.41 0  1.930000000000332 0.41 0  1.920000000000362 0.41 0  1.910000000000392 0.41 0  1.900000000000422 0.41 0  1.890000000000452 0.41 0  1.880000000000482 0.41 0  1.870000000000503 0.41 0  1.860000000000508 0.41 0  1.850000000000529 0.41 0  1.840000000000559 0.41 0  1.830000000000588 0.41 0  1.820000000000618 0.41 0  1.810000000000648 0.41 0  1.800000000000678 0.41 0  1.790000000000708 0.41 0  1.780000000000719 0.41 0  1.770000000000725 0.41 0  1.760000000000755 0.41 0  1.750000000000785 0.41 0  1.740000000000815 0.41 0  1.730000000000845 0.41 0  1.720000000000875 0.41 0  1.710000000000905 0.41 0  1.700000000000931 0.41 0  1.690000000000936 0.41 0  1.680000000000951 0.41 0  1.670000000000981 0.41 0  1.660000000001048 0.41 0  1.650000000001128 0.41 0  1.640000000001208 0.41 0  1.630000000001275 0.41 0  1.620000000001305 0.41 0  1.610000000001321 0.41 0  1.600000000001325 0.41 0  1.590000000001351 0.41 0  1.580000000001384 0.41 0  1.57000000000144 0.41 0  1.560000000001495 0.41 0  1.55000000000155 0.41 0  1.540000000001588 0.41 0  1.530000000001618 0.41 0  1.520000000001623 0.41 0  1.510000000001634 0.41 0  1.500000000001664 0.41 0  1.490000000001708 0.41 0  1.480000000001763 0.41 0  1.470000000001818 0.41 0  1.460000000001871 0.41 0  1.450000000001901 0.41 0  1.440000000001922 0.41 0  1.430000000001926 0.41 0  1.420000000001947 0.41 0  1.410000000001977 0.41 0  1.400000000002031 0.41 0  1.390000000002086 0.41 0  1.380000000002141 0.41 0  1.370000000002184 0.41 0  1.360000000002214 0.41 0  1.350000000002224 0.41 0  1.340000000002231 0.41 0  1.33000000000226 0.41 0  1.320000000002299 0.41 0  1.310000000002354 0.41 0  1.300000000002394 0.41 0  1.290000000002424 0.41 0  1.280000000002431 0.41 0  1.270000000002435 0.41 0  1.26000000000244 0.41 0  1.250000000002457 0.41 0  1.240000000002487 0.41 0  1.230000000002536 0.41 0  1.22000000000259 0.41 0  1.21000000000262 0.41 0  1.200
[...]
<PointData  Scalars="p"> 
<DataArray  type="Float64"  Name="p"  format="ascii">4.7814788291328286e-01  4.3283299691290350e-01  0.0000000000000000e+00  0.0000000000000000e+00  -9.4159415647722000e-01  -9.9483532175916467e-01  4.3271487766513744e-01  4.3298427547773871e-01  4.3440151743723138e-01  4.3769532126693733e-01  4.4349094209407885e-01  4.5211023073269246e-01  4.6414760937660549e-01  4.7969435708392083e-01  4.9895676242754583e-01  5.2178286175250743e-01  5.4785727311358878e-01  5.7665168145861945e-01  6.0741992217641672e-01  6.3920090131214913e-01  6.7091180673834128e-01  7.0087954980490996e-01  7.2842169251950906e-01  7.5178954417066313e-01  7.6996402856297586e-01  7.8199570561606480e-01  7.8637912337650084e-01  7.8454969668658658e-01  7.7553414133822851e-01  7.6001624387577515e-01  7.3924702821845689e-01  7.1470905441531063e-01  6.8725665153196824e-01  6.5816280922931336e-01  6.2925150535635099e-01  6.0117190074663307e-01  5.7507919290396881e-01  5.5163358326438128e-01  5.3142033494107377e-01  5.1460342075639776e-01  5.0134191029196318e-01  4.9145439349206677e-01  4.8465822624658123e-01  4.8055087171330835e-01  4.7857050243330129e-01  4.7802983718337749e-01  4.7761908229187799e-01  4.7682162450065513e-01  4.7541594775288809e-01  4.7324252650386034e-01  4.7015988731475672e-01  4.6596049995799049e-01  4.6057585494230679e-01  4.5381522033270877e-01  4.4548102536742451e-01  4.3567679228872158e-01  4.2369826194069132e-01  4.1022919055939538e-01  3.9456618281881367e-01  3.7695283185349537e-01  3.5759577088671324e-01  3.3632890377078767e-01  3.1387616654768824e-01  2.9012573614983367e-01  2.6604156304913829e-01  2.4160741768531496e-01  2.1777340061784106e-01  1.9508479126579087e-01  1.7361168788282971e-01  1.5436852681939833e-01  1.3749390436634412e-01  1.2324128722868802e-01  1.1192632165322548e-01  1.0290720458324210e-01  9.7183186967773019e-02  9.4398794783573464e-02  9.4296336333692721e-02  9.5749622048774310e-02  1.0002581638008978e-01  1.0472208146646676e-01  1.1168194435180911e-01  1.1885461079408857e-01  1.2601420590649995e-01  1.3382737035465406e-01  1.4052260132055289e-01  1.4648654563613053e-01  1.5168896978121987e-01  1.5507047347203509e-01  1.5714892785859488e-01  1.5749655551752512e-01  1.5575181021354800e-01  1.5237791288214708e-01  1.4659611245725740e-01  1.3899084259194117e-01  1.2933178444581830e-01  1.1792687836390821e-01  1.0499308896411012e-01  9.0726823778138052e-02  7.5868079599916968e-02  6.1638316133159100e-02  4.8192957970691952e-02  3.5551489716307449e-02  2.5902251456242604e-02  1.8479894814353109e-02  1.4367958073375198e-02  1.3114783570739219e-02  1.5293229934179361e-02  2.0072373489905409e-02  2.7455620739379332e-02  3.6954683478751027e-02  4.7918170375539471e-02  5.9855201915599961e-02  7.2126091761927233e-02  8.4525927528003239e-02  9.6293069516029853e-02  1.0722613207863267e-01  1.1733705501128443e-01  1.2629309216872284e-01  1.3422000851584326e-01  1.4111044745576276e-01  1.4703240175105817e-01  1.5222534216822523e-01  1.5668867790869431e-01  1.6049661618913982e-01  1.6367201933113212e-01  1.6644479928198677e-01  1.6853149114331697e-01  1.7001113505107787e-01  1.7103729058790221e-01  1.7127176682920331e-01  1.7106914021583480e-01  1.7009291092270953e-01  1.6862041325044017e-01  1.6661074267247175e-01  1.6418795659159427e-01  1.6143713787690364e-01  1.5842141860463221e-01  1.5530296888308109e-01  1.5217732500689501e-01  1.4912073589176711e-01  1.4619747535980904e-01  1.4344805654954651e-01  1.4090806272727502e-01  1.3856070933380374e-01  1.3638566006348232e-01  1.3431593894288985e-01  1.3229880804674524e-01  1.3024907704651026e-01  1.2815032080041866e-01  1.2587701936539014e-01  1.2343873696566786e-01  1.2075761066541522e-01  1.1788726613388228e-01  1.1474989906915749e-01  1.1144008184292672e-01  1.0805003115253285e-01  1.0449184241954212e-01  1.0098777746428726e-01  9.7571279795780119e-02  9.4293641672100845e-02  9.1217329498716901e-02  8.8555116233416956e-02  8.6191164778997159e-02  8.4280338228623380e-02  8.2894525677620290e-02  8.1924945078960865e-02  8.1526168137281627e-02  8.1583663084712502e-02  8.2116416981078522e-02  8.3055462287566884e-02  8.4349199019839588e-02  8.6026630122510842e-02  8.7799337105327294e-02  8.9819267724594518e-02  9.1884601944604349e-02  9.3952078373988834e-02  9.5866926770337590e-02  9.7690295772688091e-02  9.9345762753591582e-02  1.0066399092152659e-01  1.0165734118549037e-01  1.0242174513363676e-01  1.0268081102674405e-01  1.0267427009463609e-01  1.0225389775433837e-01  1.0143447134796379e-01  1.0032092577385429e-01  9.8871552517368261e-02  9.7087645583796192e-02  9.5029567648356669e-02  9.2733580409171693e-02  9.0184122059841637e-02  8.7522625532860707e-02  8.4654665973462592e-02  8.1702494156273606e-02  7.8643808125295089e-02  7.5594900096096748e-02  7.2503001594326905e-02  6.9442712922172481e-02  6.6440229166644091e-02  6.3524401163376973e-02  6.0734696515258431e-02  5.8029784044957539e-02  5.5540707337440084e-02  5.3237621471036320e-02  5.1096556193780000e-02  4.9249936047427105e-02  4.7574039711971522e-02  4.6157123350668766e-02  4.4979313259948098e-02  4.4051093792266550e-02  4.3370136954206134e-02  4.2872329467073748e-02  4.2633443931164847e-02  4.2549522498931895e-02  4.2629913486117048e-02  4.2877958337168752e-02  4.3207552592744010e-02  4.3640172041057863e-02  4.4101433687018160e-02  4.4562798563742942e-02  4.5039030108021086e-02  4.5447641530180168e-02  4.5811493668784981e-02  4.6045717471089403e-02  4.6194006534115067e-02  4.6157088544180352e-02  4.6018139297279159e-02  4.5705389277906225e-02  4.5231477505765720e-02  4.4569263038596971e-02  4.3752489023514821e-02  4.2767521444022710e-02  4.1634423081760380e-02  4.0361839797812722e-02  3.8937798644847074e-02  3.7418820183503419e-02  3.5786508332163118e-02  3.4071114894735237e-02  3.2292091780333099e-02  3.0463930738446908e-02  2.8611384226663851e-02  2.6742691636575021e-02  2.4895022792315175e-02  2.3052595152691435e-02  2.1250986701031579e-02  1.9521551688404488e-02  1.7836174708059857e-02  1.6240987371101356e-02  1.4729340305659269e-02  1.3312758649159271e-02  1.2009299567538243e-02  1.0794694628105722e-02  9.6942694320565816e-03  8.7120756343943041e-03  7.8305652914357083e-03  7.0604422284433945e-03  6.3914074762393752e-03  5.8097044053501863e-03  5.3179260524517293e-03  4.9112014051449692e-03  4.5592712480693864e-03  4.2612965664000652e-03  4.0066563128906543e-03  3.5006834831195579e-03  0.0000000000000000e+00  0.0000000000000000e+00  0.0000000000000000e+00  0.0000000000000000e+00  0.0000000000000000e+00  0.0000000000000000e+00  0.0000000000000000e+00  0.0000000000000000e+00  0.0000000000000000e+00  0.0000000000000000e+00  0.0000000000000000e+00  0.0000000000000000e+00  0.0000000000000000e+00  0.0000000000000000e+00  0.0000000000000000e+00  0.0000000000000000e+00  0.0000000000000000e+00  0.0000000000000000e+00  0.0000000000000000e+00  0.0000000000000000e+00  0.0000000000000000e+00  0.0000000000000000e+00  0.0000000000000000e+00  0.0000000000000000e+00  0.0000000000000000e+00  0.0000000000000000e+00  0.0000000000000000e+00  0.0000000000000000e+00  0.0000000000000000e+00  0.0000000000000000e+00  0.0000000000000000e+00  0.0000000000000000e+00  0.0000000000000000e+00  0.0000000000000000e+00  0.0000000000000000e+00  0.0000000000000000e+00  0.0000000000000000e+00  0.0000000000000000e+00  0.0000000000000000e+00  0.0000000000000000e+00  5.9808476990059426e-03  7.2606807698251319e-03  8.6281548575827954e-03  1.0057489387940998e-02  1.1418127361479621e-02  1.2739856130824742e-02  1.4013778434903002e-02  1.5220726982035032e-02  1.6368883044374255e-02  1.7417645311628944e-02  1.8399660977792436e-02  1.9278840877815080e-02  2.0066413261520612e-02  2.0768286037096028e-02  2.1360276556946580e-02  2.1877983812047218e-02  2.2286748109124413e-02  2.2639734209953327e-02  2.2902390682362099e-02  2.3121901184677697e-02  2.3283136380224792e-02  2.3413546417252691e-02  2.3526745664966795e-02  2.3641558550617107e-02  2.3759334401505655e-02  2.3930228437266509e-02  2.4139105561370992e-02  2.4401306735654663e-02  2.4768318907526010e-02  2.5224691961022783e-02  2.5779183105779358e-02  2.6454844610548197e-02  2.7267581351876527e-02  2.8196352017035936e-02  2.9279563626546372e-02  3.0484057438076313e-02  3.1860127091021512e-02  3.3337014330118528e-02  3.4982006721503311e-02  3.6723603496862274e-02  3.8578728337474402e-02  4.0567187545887819e-02  4.2616600084080455e-02  4.4747471112625531e-02  4.6900939136642457e-02  4.9140712843415861e-02  5.1368211565413789e-02  5.3605043065688571e-02  5.5802609596343609e-02  5.7940498302345586e-02  6.0004691292884549e-02  6.1976902375623005e-02  6.3823935065085671e-02  6.5517754157967387e-02  6.7086235884523907e-02  6.8395722319334218e-02  6.9558804727976792e-02  7.0502812584675084e-02  7.1209212875865957e-02  7.1719663289487007e-02  7.1988174747194669e-02  7.2069110109037854e-02  7.1916514977923701e-02  7.1572598116814573e-02  7.1096858559206458e-02  7.0498032694328486e-02  6.9778604291952179e-02  6.9009008677905909e-02  6.8178983959359798e-02  6.7414454198519144e-02  6.6696308971688129e-02  6.6068819789716446e-02  6.5570454336789263e-02  6.5279736742324540e-02  6.5160175052355315e-02  6.5281045983446348e-02  6.5667646290141102e-02  6.6315668192462124e-02  6.7228996955480888e-02  6.8412017162204311e-02  6.9880343395113814e-02  7.1571295354536865e-02  7.3527369653568458e-02  7.5698608561306668e-02  7.8052527934835816e-02  8.0595781697458804e-02  8.3251486539630035e-02  8.6011813795561623e-02  8.8900500412581088e-02  9.1834090809779695e-02  9.4739883604809089e-02  9.7694593501815419e-02  1.0065122197348032e-01  1.0351647140379962e-01  1.0633249670162154e-01  1.0908216422866179e-01  1.1172411619050833e-01  1.1420809795869616e-01  1.1656069283665271e-01  1.1877172527689710e-01  1.2075081411999262e-01  1.2252375992694807e-01  1.2405617660106727e-01  1.2530881704443389e-01  1.2630596905413893e-01  1.2697539132132907e-01  1.2735908067964480e-01  1.2750293960804504e-01  1.2732209203235278e-01  1.2689262055205094e-01  1.2621280990998923e-01  1.2536803047046960e-01  1.2444393255884972e-01  1.2341362509948470e-01  1.2239833979663051e-01  1.2142909285699749e-01  1.2065723557120130e-01  1.1998572398629832e-01  1.1956078408961607e-01  1.1940380753053510e-01  1.1945518533719629e-01  1.1974612216893955e-01  1.2020247695982739e-01  1.2072985745160703e-01  1.2124895576968162e-01  1.2164598663367707e-01  1.2180619265953882e-01  1.2155900353118264e-01  1.2083438926102812e-01  1.1960874272720511e-01  1.1766213446438650e-01  1.1519300829935622e-01  1.1220701619458924e-01  1.0877669836748638e-01  1.0518326686376279e-01  1.0178703388146941e-01  9.8686008292607638e-02  9.6474861405752274e-02  9.5346403422417139e-02  9.5713007427345495e-02  9.7872740254926566e-02  1.0172912893870048e-01  1.0813056542136648e-01  1.1600448310083411e-01  1.2602690221739501e-01  1.3804010358504179e-01  1.5081994527186623e-01  1.6469754650574556e-01  1.7930374009138594e-01  1.9343536827120925e-01  2.0729427205513093e-01  2.2000472129474236e-01  2.3158457641236987e-01  2.4099815620203049e-01  2.4847677981113592e-01  2.5358086345808994e-01  2.5626301424993364e-01  2.5623838351723915e-01  2.5345858388571779e-01  2.4841246602200259e-01  2.4066535029324526e-01  2.3038371241476335e-01  2.1762890864332285e-01  2.0305396150940042e-01  1.8656768443110761e-01  1.6818894250625668e-01  1.4930499892652979e-01  1.2924304763087646e-01  1.0908347928650194e-01  8.8914453895879694e-02  6.9460868892986111e-02  5.1370448963164492e-02  3.4530322039521603e-02  1.9681433387995467e-02  6.8104001236862438e-03  -3.8349518645045288e-03  -1.2222438502704068e-02  -1.8518870730343310e-02  -2.2216512608245979e-02  -2.4473056904257870e-02  -2.4490935915902391e-02  -2.2976954622142342e-02  -1.9808053970678325e-02  -1.5348039503506519e-02  -9.2325717360672421e-03  -1.9229789443721888e-03  6.9099951868583486e-03  1.7355353978587819e-02  2.9233781288199579e-02  4.2796573657238463e-02  5.7851837858964458e-02  7.4455629929855091e-02  9.2804105197814013e-02  1.1225053800818983e-01  1.3349808346629247e-01  1.5532062329724472e-01  1.7856389066815401e-01  2.0180016961810407e-01  2.2558177588517012e-01  2.4889736886354025e-01  2.7185083377314401e-01  2.9362840845273336e-01  3.1415017154437308e-01  3.3331382353376504e-01  3.5018731872674580e-01  3.6561676847323032e-01  3.7901072109016481e-01  3.9027221857490074e-01  3.9977465953062763e-01  4.0759941796109739e-01  4.1402457234347173e-01  4.1901063653840548e-01  4.2300654832261037e-01  4.2585250565110466e-01  4.2816029296094177e-01  4.2974190437216764e-01  4.3091358836562321e-01  4.3171693542056350e-01  4.3226679293704834e-01  -1.1152650829746089e+00  -1.0572366816938596e+00  -7.4200470374738436e-01  -1.9295276876840370e-01  5.8050783404199269e-01  1.2536697307341675e+00  1.7666991303726756e+00  1.9726284239071354e+00  1.8155422219696951e+00  1.3475846159927987e+00  7.1391967664649258e-01  -9.9112349593924801e-03  -5.9245366915521125e-01  -8.9684589232251699e-01  -1.0263101308446818e+00  -8.0786825085477976e-01  -6.9210487442136603e-01  -6.1222862573745329e-01  -5.5929231079324360e-01  -5.0598707530000009e-01  -4.5767621867175595e-01  -4.4557196454259768e-01  -4.7690531353683402e-01  -5.0473374976885099e-01  -5.0450947156553172e-01  -4.7919084676039914e-01  -4.7593073036500649e-01  -5.2471854549425001e-01  -6.2946069770865187e-01  -7.7916006182605302e-01  1.6877519703105949e-02  5.0997595756730157e-02  7.9497918609409302e-02  1.0483661746534653e-01  2.9482692404849135e-02  8.3118988123032325e-02  1.0450120930715430e-01  1.3930750806852638e-01  1.2277306906926173e-02  6.6779582882060651e-02  3.9066232731449338e-02  4.4430205425585456e-02  6.4144698093429028e-02  2.2300735642977871e-02  9.5028275135583554e-02  8.4259043049786209e-02  -4.5540429853139264e-01  2.5421489522314505e-01  1.2590197958121413e-01  1.0780331580039371e-01  1.2940850626536568e-01  1.2342862970537531e-01  1.0736002640354456e-01  1.7809513178997929e-01  2.7708253410885779e-02  9.8092142722582404e-02  9.8248793773834414e-02  4.4903209298265759e-02  7.3325724086228200e-02  6.1417817039918166e-02  2.4146431082164962e-02  3.8883538226024174e-02  8.1554950487063543e-02  1.2554491927873149e-01  9.1284510861340609e-02  4.8207210376042575e-01  2.7489743509238457e-02  5.3233724461857101e-01  7.4862848964164716e-02  1.2162199759759006e-02  1.0866077345118434e-01  5.7322869369479834e-02  1.7571190315121263e-02  1.3785871761347721e-01  3.5494114575871975e-02  -1.1927654896222518e-01  -8.3986320707082326e-02  1.1284084649403318e-01  2.5803432848748942e-01  7.4700710594511069e-02  4.6516088963009994e-03  1.7069755588236563e-01  1.0554328378090273e-01  3.9875975059040378e-02  -8.6568127600931011e-01  1.8653659089308963e-02  2.1004057628134971e-02  1.0756517052157498e-01  1.2013611399548672e-01  2.2982350861719087e-02  2.0490245436378643e-01  7.8006672799582427e-02  2.1950942625443934e-02  8.5716630039724462e-02  6.2058605462531995e-02  4.4838592576368352e-02  9.0064184824518612e-01  2.3091825575294944e-01  4.9342608977541502e-02  7.1522466479172139e-02  3.3182303828489815e-02  1.3861781102280533e-02  7.9554208207185659e-02  4.7467735710257725e-02  8.7797789845479368e-01  3.2017628691487546e-03  2.1620821720548747e-01  8.4470389561982065e-02  4.2530794006028119e-02  1.3219742241283239e-01  4.5802379950590645e-02  1.0889965521552240e-01  1.4600755823556374e-01  1.1088300749190814e-01  1.1107059321443562e-01  -5.3590030131016576e-02  1.2405729992719192e-01  8.8966084841388696e-02  6.3980752131152827e-02  2.2625887856571759e-02  7.6013812862200283e-02  8.8007182467497100e-02  8.0825085458002224e-02  2.2318036944661630e-02  1.2578494768157419e-01  9.8889468425050614e-02  -5.2780621327802624e-01  6.5335438518781472e-02  1.3278119202164609e-01  2.4353948324822619e-01  8.3805506694263288e-02  1.1981180738569124e-01  1.0496827268669054e-01  9.5767371841041768e-02  -5.9622929627021382e-01  5.6954471571650095e-02  -6.1227155422806975e-02  1.1334178780603145e-01  -3.5338657334468093e-01  1.6337826765030738e-01  1.2369306153319361e-01  1.2371571034431987e-01  1.1288696031799783e-01  3.5488905685678605e-02  6.1047181014053167e-02  1.5744500717474361e-01  1.7083323711511691e-02  7.6970019905040515e-02  3.7597012570013820e-02  3.0012019131105246e-02  -1.0627584977838067e-01  2.4221437573726845e-01  2.1212793092902918e-01  1.1970399501242496e-01  1.4479757882083633e-01  3.9845387687684787e-02  6.7889416579163225e-02  1.3403311230157949e-01  4.8201221765288779e-02  8.6259709334777709e-02  9.2933922434397395e-02  4.5602162611843085e-02  1.0342654386052764e-01  1.7670270698933044e-01  4.4026577914600662e-01  6.7463489189147116e-02  1.1487630516438646e-02  6.6747329243506390e-02  1.6066630046383992e-02  4.8731182700491910e-01  8.2101061960527605e-02  2.2219368902976957e-02  9.4944079115532792e-02  1.0324604929485688e-01  1.1896705853696800e-01  1.2292661331655219e-01  6.7308815930893925e-02  2.3849273751798947e-02  4.6664917042072158e-02  9.0571074869677262e-02  9.3013242884834549e-02  3.7239965562243615e-01  7.3169262154532844e-02  6.7792578070835691e-02  4.5054279608053131e-02  4.2617721268134276e-02  4.1213399759772354e-02  1.0936440533166500e-01  -1.5532269047196987e-01  1.2454681257432454e-02  6.1545537509704140e-01  -8.8341146443914484e-02  1.9249095614944575e-02  7.2480468166490897e-02  6.4050199893122772e-02  3.1034385024020067e-01  6.3333601547307897e-02  2.4444269148004516e-02  4.0223347416989474e-01  9.0375383334129464e-02  1.2640953971683141e-01  3.4305257293522587e-02  8.3936702345583203e-02  2.2502723347851347e-02  2.7373560664536424e-02  1.0505584342771486e-01  7.9939742494075716e-01  6.3629164011096306e-01  4.1279740665916519e-02  4.3749532895382458e-03  9.2322024156356500e-02  -1.7550232145682274e-01  -1.2282399964849397e-01  9.2991479092759732e-02  4.1604071541461625e-03  7.7572872040119090e-02  7.8606374260385220e-02  2.3233402291959467e-02  -2.5105920395535825e-01  8.7796571958457786e-03  5.0106805736291712e-02  6.6454532227593788e-02  1.1044964462523192e-01  4.0601675229909463e-02  1.2144874431931386e-01  1.0572679078370852e-03  6.2429868272206833e-02  1.5094522414290912e-01  1.3240064850634778e-01  3.1268556308188512e-02  1.9103431807668981e-02  1.6427049638296054e-01  1.9229231307276984e-01  1.1199760391714535e-01  2.7915153693344713e-02  4.1278322837936546e-02  1.1292642718042351e-01  1.2916605715977791e+00  7.0182529555460615e-02  1.4817797887422321e-01  7.2690956228960976e-02  2.3433922194789018e-02  8.6046747190790529e-01  5.8390640941392069e-02  1.5373669359862485e-01  1.3037480297670448e-01  1.1959914420717146e-01  2.2445114194466768e-02  8.5399962903068196e-03  3.2457057044046909e-02  6.3684165562146455e-02  8.3704106237144571e-01  1.2024743222704298e-01  -3.0853830327935355e-01  1.1837661468981055e-01  6.8716585678459244e-02  4.5536328498138524e-02  3.4648323736711548e-02  1.0171819816661810e-01  2.4956870248548521e-01  2.6637721049819452e-01  9.0468337294532450e-03  4.0645895137763122e-02  2.8270901034009999e-01  1.4038173337042684e-01  1.6097070894070722e-01  2.8985568630549165e-02  1.1087550227261825e-01  6.1068939362317734e-02  7.7786989611448074e-02  6.6580704515986217e-02  -2.3397961380646065e-02  1.6746001562394205e-01  4.3771986905818613e-02  6.8320809797969034e-02  2.3214575199994546e-02  1.0788530010281822e-02  1.1470733360598764e-01  1.0385565224416772e-01  2.2773496320714759e-01  9.6690255430375821e-02  -6.4876104304019178e-01  1.0394994775254715e-01  4.8112002305882702e-02  1.1798347335984326e-01  1.6324412866387947e-02  1.8637924947599757e-01  5.4136500225938501e-02  9.6362963796691431e-02  -6.2194633525408674e-02  5.2235853521910319e-02  1.3403103820612922e-01  -4.0873397818356166e-01  9.7337863105338360e-02  1.2582542631712770e-01  5.6361733727665578e-02  2.2036420032853520e-02  -9.6074317921002361e-01  4.1873109776093959e-02  1.2507556869390965e-01  4.1691337876760069e-02  -1.7154892735458626e-02  8.4078286350516118e-02  8.4693328236577