<?xml version="1.0"?>
<VTKFile type="UnstructuredGrid"  version="0.1"  >
<UnstructuredGrid>
<Piece  NumberOfPoints="12123" NumberOfCells="23692">
<Points>
<DataArray  type="Float64"  NumberOfComponents="3"  format="ascii">0 0 0  0 0.41 0  2.2 0 0  2.2 0.41 0  0.2 0.15 0  0.2 0.25 0  0 0.4000000000000008 0  0 0.3900000000000259 0  0 0.3800000000000606 0  0 0.3700000000000953 0  0 0.3600000000001082 0  0 0.3500000000001241 0  0 0.3400000000001558 0  0 0.3300000000001905 0  0 0.3200000000002133 0  0 0.3100000000002381 0  0 0.3000000000002728 0  0 0.2900000000003075 0  0 0.2800000000003204 0  0 0.2700000000003551 0  0 0.2600000000003897 0  0 0.2500000000004243 0  0 0.2400000000004419 0  0 0.2300000000004503 0  0 0.2200000000004849 0  0 0.2100000000005195 0  0 0.2000000000005203 0  0 0.1900000000004874 0  0 0.1800000000004544 0  0 0.1700000000004476 0  0 0.1600000000004316 0  0 0.1500000000003986 0  0 0.1400000000003795 0  0 0.1300000000003759 0  0 0.1200000000003428 0  0 0.1100000000003098 0  0 0.1000000000002768 0  0 0.09000000000024383 0  0 0.08000000000021068 0  0 0.07000000000020096 0  0 0.0600000000001879 0  0 0.05000000000015475 0  0 0.04000000000012166 0  0 0.03000000000008857 0  0 0.02000000000005536 0  0 0.01000000000002221 0  0.009999999999981288 0 0  0.01999999999996251 0 0  0.02999999999994353 0 0  0.0399999999999241 0 0  0.04999999999990434 0 0  0.05999999999988457 0 0  0.06999999999986481 0 0  0.07999999999984503 0 0  0.08999999999982462 0 0  0.09999999999980327 0 0  0.1099999999997819 0 0  0.1199999999997606 0 0  0.1299999999997423 0 0  0.1399999999997245 0 0  0.1499999999997079 0 0  0.1599999999996929 0 0  0.1699999999996795 0 0  0.179999999999666 0 0  0.1899999999996523 0 0  0.1999999999996356 0 0  0.209999999999619 0 0  0.2199999999996025 0 0  0.2299999999995879 0 0  0.2399999999995744 0 0  0.249999999999561 0 0  0.2599999999995468 0 0  0.2699999999995302 0 0  0.2799999999995105 0 0  0.2899999999994876 0 0  0.2999999999994596 0 0  0.3099999999994304 0 0  0.3199999999994012 0 0  0.3299999999993699 0 0  0.3399999999993343 0 0  0.3499999999992988 0 0  0.3599999999992632 0 0  0.3699999999992334 0 0  0.3799999999992042 0 0  0.3899999999991749 0 0  0.3999999999991457 0 0  0.4099999999991165 0 0  0.4199999999990872 0 0  0.429999999999058 0 0  0.4399999999990288 0 0  0.4499999999989995 0 0  0.4599999999989703 0 0  0.4699999999989373 0 0  0.4799999999989018 0 0  0.4899999999988663 0 0  0.4999999999988318 0 0  0.5099999999988025 0 0  0.5199999999987733 0 0  0.529999999998744 0 0  0.5399999999987057 0 0  0.5499999999986639 0 0  0.559999999998622 0 0  0.5699999999985838 0 0  0.5799999999985546 0 0  0.5899999999985253 0 0  0.5999999999984962 0 0  0.6099999999984668 0 0  0.6199999999984376 0 0  0.6299999999984084 0 0  0.6399999999983792 0 0  0.6499999999983499 0 0  0.6599999999983207 0 0  0.6699999999982915 0 0  0.6799999999982622 0 0  0.6899999999982329 0 0  0.6999999999982038 0 0  0.7099999999981744 0 0  0.7199999999981452 0 0  0.7299999999981162 0 0  0.7399999999980867 0 0  0.7499999999980577 0 0  0.7599999999980284 0 0  0.769999999997999 0 0  0.7799999999979699 0 0  0.7899999999979407 0 0  0.7999999999979114 0 0  0.8099999999978793 0 0  0.8199999999978375 0 0  0.8299999999977956 0 0  0.8399999999977538 0 0  0.8499999999977218 0 0  0.8599999999976925 0 0  0.8699999999976633 0 0  0.8799999999976341 0 0  0.8899999999976047 0 0  0.8999999999975756 0 0  0.9099999999975463 0 0  0.9199999999975172 0 0  0.9299999999974878 0 0  0.9399999999974586 0 0  0.9499999999974295 0 0  0.9599999999974002 0 0  0.969999999997371 0 0  0.9799999999973418 0 0  0.9899999999973124 0 0  0.9999999999972872 0 0  1.009999999997271 0 0  1.019999999997246 0 0  1.029999999997217 0 0  1.039999999997188 0 0  1.049999999997163 0 0  1.059999999997159 0 0  1.069999999997144 0 0  1.079999999997114 0 0  1.089999999997085 0 0  1.099999999997056 0 0  1.109999999997077 0 0  1.119999999997098 0 0  1.12999999999712 0 0  1.139999999997141 0 0  1.149999999997162 0 0  1.159999999997205 0 0  1.169999999997248 0 0  1.179999999997269 0 0  1.18999999999729 0 0  1.199999999997312 0 0  1.209999999997333 0 0  1.219999999997354 0 0  1.229999999997375 0 0  1.239999999997403 0 0  1.249999999997449 0 0  1.259999999997482 0 0  1.269999999997503 0 0  1.279999999997525 0 0  1.289999999997546 0 0  1.299999999997567 0 0  1.309999999997589 0 0  1.31999999999761 0 0  1.329999999997648 0 0  1.339999999997694 0 0  1.349999999997717 0 0  1.359999999997738 0 0  1.369999999997759 0 0  1.379999999997781 0 0  1.389999999997802 0 0  1.399999999997823 0 0  1.409999999997846 0 0  1.419999999997893 0 0  1.42999999999793 0 0  1.439999999997952 0 0  1.449999999997973 0 0  1.459999999997994 0 0  1.469999999998015 0 0  1.479999999998037 0 0  1.489999999998058 0 0  1.499999999998091 0 0  1.509999999998137 0 0  1.519999999998165 0 0  1.529999999998186 0 0  1.539999999998207 0 0  1.549999999998229 0 0  1.55999999999825 0 0  1.569999999998271 0 0  1.579999999998293 0 0  1.589999999998336 0 0  1.599999999998378 0 0  1.6099999999984 0 0  1.619999999998421 0 0  1.629999999998442 0 0  1.639999999998464 0 0  1.649999999998485 0 0  1.659999999998506 0 0  1.669999999998528 0 0  1.679999999998549 0 0  1.68999999999857 0 0  1.699999999998592 0 0  1.709999999998634 0 0  1.719999999998677 0 0  1.729999999998699 0 0  1.73999999999872 0 0  1.749999999998741 0 0  1.759999999998762 0 0  1.769999999998784 0 0  1.779999999998805 0 0  1.789999999998833 0 0  1.799999999998879 0 0  1.809999999998912 0 0  1.819999999998933 0 0  1.829999999998954 0 0  1.839999999998976 0 0  1.849999999998997 0 0  1.859999999999018 0 0  1.86999999999904 0 0  1.879999999999078 0 0  1.889999999999124 0 0  1.899999999999147 0 0  1.909999999999168 0 0  1.919999999999189 0 0  1.929999999999211 0 0  1.939999999999232 0 0  1.949999999999253 0 0  1.959999999999276 0 0  1.969999999999323 0 0  1.97999999999936 0 0  1.989999999999381 0 0  1.999999999999387 0 0  2.009999999999383 0 0  2.019999999999379 0 0  2.029999999999375 0 0  2.039999999999371 0 0  2.049999999999391 0 0  2.059999999999437 0 0  2.069999999999521 0 0  2.079999999999617 0 0  2.089999999999663 0 0  2.099999999999694 0 0  2.109999999999689 0 0  2.119999999999686 0 0  2.129999999999681 0 0  2.139999999999722 0 0  2.149999999999776 0 0  2.159999999999873 0 0  2.169999999999948 0 0  2.179999999999994 0 0  2.190000000000004 0 0  2.2 0.009999999999981952 0  2.2 0.01999999999996097 0  2.2 0.02999999999994221 0  2.2 0.03999999999992531 0  2.2 0.04999999999991126 0  2.2 0.05999999999988534 0  2.2 0.06999999999985251 0  2.2 0.07999999999982024 0  2.2 0.08999999999980195 0  2.2 0.0999999999997695 0  2.2 0.1099999999997346 0  2.2 0.1199999999997104 0  2.2 0.1299999999996865 0  2.2 0.1399999999996516 0  2.2 0.1499999999996167 0  2.2 0.1599999999995818 0  2.2 0.169999999999564 0  2.2 0.1799999999995553 0  2.2 0.1899999999995205 0  2.2 0.1999999999994856 0  2.2 0.2099999999994845 0  2.2 0.2199999999995173 0  2.2 0.2299999999995501 0  2.2 0.2399999999995566 0  2.2 0.2499999999995723 0  2.2 0.259999999999605 0  2.2 0.2699999999996239 0  2.2 0.2799999999996273 0  2.2 0.2899999999996601 0  2.2 0.2999999999996928 0  2.2 0.3099999999997256 0  2.2 0.3199999999997584 0  2.2 0.3299999999997912 0  2.2 0.3399999999998008 0  2.2 0.3499999999998136 0  2.2 0.3599999999998464 0  2.2 0.3699999999998793 0  2.2 0.3799999999999122 0  2.2 0.3899999999999451 0  2.2 0.3999999999999779 0  2.190000000000005 0.41 0  2.180000000000009 0.41 0  2.170000000000015 0.41 0  2.160000000000019 0.41 0  2.150000000000024 0.41 0  2.140000000000029 0.41 0  2.130000000000033 0.41 0  2.120000000000038 0.41 0  2.110000000000043 0.41 0  2.100000000000048 0.41 0  2.090000000000087 0.41 0  2.080000000000142 0.41 0  2.070000000000197 0.41 0  2.06000000000024 0.41 0  2.050000000000245 0.41 0  2.040000000000249 0.41 0  2.030000000000254 0.41 0  2.020000000000259 0.41 0  2.010000000000264 0.41 0  2.000000000000268 0.41 0  1.990000000000273 0.41 0  1.980000000000278 0.41 0  1.970000000000283 0.41 0  1.960000000000287 0.41 0  1.950000000000292 0.41 0  1.940000000000302 0.41 0  1.930000000000332 0.41 0  1.920000000000362 0.41 0  1.910000000000392 0.41 0  1.900000000000422 0.41 0  1.890000000000452 0.41 0  1.880000000000482 0.41 0  1.870000000000503 0.41 0  1.860000000000508 0.41 0  1.850000000000529 0.41 0  1.840000000000559 0.41 0  1.830000000000588 0.41 0  1.820000000000618 0.41 0  1.810000000000648 0.41 0  1.800000000000678 0.41 0  1.790000000000708 0.41 0  1.780000000000719 0.41 0  1.770000000000725 0.41 0  1.760000000000755 0.41 0  1.750000000000785 0.41 0  1.740000000000815 0.41 0  1.730000000000845 0.41 0  1.720000000000875 0.41 0  1.710000000000905 0.41 0  1.700000000000931 0.41 0  1.690000000000936 0.41 0  1.680000000000951 0.41 0  1.670000000000981 0.41 0  1.660000000001048 0.41 0  1.650000000001128 0.41 0  1.640000000001208 0.41 0  1.630000000001275 0.41 0  1.620000000001305 0.41 0  1.610000000001321 0.41 0  1.600000000001325 0.41 0  1.590000000001351 0.41 0  1.580000000001384 0.41 0  1.57000000000144 0.41 0  1.560000000001495 0.41 0  1.55000000000155 0.41 0  1.540000000001588 0.41 0  1.530000000001618 0.41 0  1.520000000001623 0.41 0  1.510000000001634 0.41 0  1.500000000001664 0.41 0  1.490000000001708 0.41 0  1.480000000001763 0.41 0  1.470000000001818 0.41 0  1.460000000001871 0.41 0  1.450000000001901 0.41 0  1.440000000001922 0.41 0  1.430000000001926 0.41 0  1.420000000001947 0.41 0  1.410000000001977 0.41 0  1.400000000002031 0.41 0  1.390000000002086 0.41 0  1.380000000002141 0.41 0  1.370000000002184 0.41 0  1.360000000002214 0.41 0  1.350000000002224 0.41 0  1.340000000002231 0.41 0  1.33000000000226 0.41 0  1.320000000002299 0.41 0  1.310000000002354 0.41 0  1.300000000002394 0.41 0  1.290000000002424 0.41 0  1.280000000002431 0.41 0  1.270000000002435 0.41 0  1.26000000000244 0.41 0  1.250000000002457 0.41 0  1.240000000002487 0.41 0  1.230000000002536 0.41 0  1.22000000000259 0.41 0  1.21000000000262 0.41 0  1.200
[...]
<PointData  Scalars="p"> 
<DataArray  type="Float64"  Name="p"  format="ascii">4.3004434236778361e-01  4.6905801619974513e-01  0.0000000000000000e+00  0.0000000000000000e+00  -1.0510879714718346e+00  -8.1381537336522880e-01  4.6895004885744140e-01  4.6923626822217213e-01  4.7062998379693127e-01  4.7381759859275907e-01  4.7938767948958183e-01  4.8763816195880777e-01  4.9911425963339795e-01  5.1389110034012664e-01  5.3212122913879689e-01  5.5362988273176761e-01  5.7807055142509378e-01  6.0488980325494857e-01  6.3328947178720119e-01  6.6235238860802215e-01  6.9094624424752804e-01  7.1740508299479122e-01  7.4111562327577818e-01  7.6034063517712658e-01  7.7412038401127070e-01  7.8157280516114969e-01  7.8127383267245676e-01  7.7475123553349823e-01  7.6110117262135701e-01  7.4110129790545709e-01  7.1607366701579400e-01  6.8754640654546251e-01  6.5642925441992361e-01  6.2404128286554905e-01  5.9219855683391975e-01  5.6158566477886562e-01  5.3332950469796292e-01  5.0808341608709096e-01  4.8642636163147585e-01  4.6847961866695986e-01  4.5438453908482729e-01  4.4392096340031001e-01  4.3676525257414078e-01  4.3247549572916055e-01  4.3043925623161794e-01  4.2991236979111203e-01  4.2953031376980394e-01  4.2878732230324335e-01  4.2745083297652198e-01  4.2533879797199969e-01  4.2228710296769489e-01  4.1806831091827618e-01  4.1256426287605880e-01  4.0557663112370035e-01  3.9684498593047013e-01  3.8647337718651509e-01  3.7367326820970148e-01  3.5918601174946380e-01  3.4220582249376691e-01  3.2301567819477550e-01  3.0182149705343553e-01  2.7842990342383073e-01  2.5364030915280028e-01  2.2729814295097472e-01  2.0048045291313779e-01  1.7310146935188989e-01  1.4626205778242188e-01  1.2046603854979661e-01  9.5865099864798228e-02  7.3541970673071388e-02  5.3733219414226992e-02  3.6572559954106840e-02  2.2725878854533886e-02  1.1340776778458099e-02  3.9055715401833417e-03  -1.4869809474189440e-04  -9.0645492417398507e-04  7.0799586493783696e-04  6.0380205601907374e-03  1.2657412294548408e-02  2.2811030322769991e-02  3.4075790067598290e-02  4.6401527794970886e-02  6.0805568230872319e-02  7.4536877381970026e-02  8.8798318256733871e-02  1.0301064730710162e-01  1.1562896981338976e-01  1.2773341145762282e-01  1.3804430358199060e-01  1.4663083843694469e-01  1.5340381046085852e-01  1.5780042243279727e-01  1.6025729349908627e-01  1.6011519305287239e-01  1.5791973153962935e-01  1.5295233262935901e-01  1.4556814800372936e-01  1.3586712446828642e-01  1.2449562406274794e-01  1.1100565547636418e-01  9.5800948355333065e-02  8.1053780777823534e-02  6.5611255391082174e-02  5.1357899169003740e-02  3.8601362776822412e-02  2.8332146634598994e-02  2.0429869676870313e-02  1.6204124849598767e-02  1.5085351332947338e-02  1.7339044732734128e-02  2.2576544824648555e-02  3.0552205160542533e-02  4.0788263490593404e-02  5.2493706897352173e-02  6.5332277915075537e-02  7.8713592655745915e-02  9.1869982345354831e-02  1.0452701239420117e-01  1.1622428368256824e-01  1.2667267957849798e-01  1.3594333842459397e-01  1.4385129476606917e-01  1.5049854706771595e-01  1.5580411994317234e-01  1.6034884072472827e-01  1.6382015447175138e-01  1.6649253732014471e-01  1.6863415852423266e-01  1.6999699544776320e-01  1.7096648481902857e-01  1.7117920370211026e-01  1.7093207351239845e-01  1.7005448069368068e-01  1.6863397806749933e-01  1.6664956641008816e-01  1.6404455980978114e-01  1.6102083341727183e-01  1.5763779892847118e-01  1.5394583499174819e-01  1.5005405092631141e-01  1.4612464798864022e-01  1.4236306471865917e-01  1.3879491438835972e-01  1.3565517685480941e-01  1.3291162503946105e-01  1.3073500355396231e-01  1.2902096797128387e-01  1.2782630168541345e-01  1.2718349868108425e-01  1.2685808104854282e-01  1.2687548217547939e-01  1.2700768928841955e-01  1.2720159433806880e-01  1.2730416046476195e-01  1.2713588763965450e-01  1.2670501202341533e-01  1.2583399285171426e-01  1.2458551302512660e-01  1.2275004019104978e-01  1.2058345412017089e-01  1.1792996918333884e-01  1.1491968092531211e-01  1.1166707406030159e-01  1.0819203106926423e-01  1.0465926343468644e-01  1.0115148370957969e-01  9.7762505721339862e-02  9.4596060975309926e-02  9.1701792234758328e-02  8.9283808271901480e-02  8.7166677982323693e-02  8.5574670101060929e-02  8.4427759693012111e-02  8.3788779014659628e-02  8.3516827741221267e-02  8.3736484757397409e-02  8.4300803589793458e-02  8.5183511546889912e-02  8.6235557910611521e-02  8.7542519358750959e-02  8.8914879714300996e-02  9.0276438226750702e-02  9.1662102879324969e-02  9.2895387891142406e-02  9.3943394899861254e-02  9.4867362669366698e-02  9.5474791544344240e-02  9.5799380357720468e-02  9.5829510247392002e-02  9.5539961412351493e-02  9.4902301160422767e-02  9.4036064163902422e-02  9.2735952679500605e-02  9.1228432463906620e-02  8.9428509859796959e-02  8.7423958415230998e-02  8.5191135823508082e-02  8.2791697977721290e-02  8.0247000840398916e-02  7.7613389282185932e-02  7.4900092755441322e-02  7.2119958508380322e-02  6.9387208808263309e-02  6.6645252384346515e-02  6.3929453269124567e-02  6.1336079071083162e-02  5.8759066529515930e-02  5.6313724310241779e-02  5.3967106397430638e-02  5.1756475938747763e-02  4.9643258197348182e-02  4.7650298349680903e-02  4.5819375631397541e-02  4.4074283962644338e-02  4.2492581587025194e-02  4.1022107286782711e-02  3.9666973577006895e-02  3.8425344393252105e-02  3.7293761044615847e-02  3.6288860323385588e-02  3.5374634465424770e-02  3.4564835336627915e-02  3.3839544095953848e-02  3.3206841577566010e-02  3.2648409518367866e-02  3.2167112588607105e-02  3.1745218408263873e-02  3.1370664070105005e-02  3.1040346823106066e-02  3.0735141420757988e-02  3.0453446549599670e-02  3.0173205075536346e-02  2.9887138155083190e-02  2.9580583938941019e-02  2.9237900902565270e-02  2.8862873421315431e-02  2.8419343004188011e-02  2.7924096453533373e-02  2.7362281027685526e-02  2.6718120023040377e-02  2.6009938106437053e-02  2.5217446131899062e-02  2.4346880226881376e-02  2.3403555873792847e-02  2.2392646775768459e-02  2.1318527178909703e-02  2.0185332826383167e-02  1.9002094802982827e-02  1.7790581486595135e-02  1.6536926254539716e-02  1.5282482282695815e-02  1.4000618778240898e-02  1.2734446089607538e-02  1.1480704017560310e-02  1.0234806801849733e-02  9.0325820750220085e-03  7.8463024527050292e-03  6.6999578151832424e-03  5.6096910282878928e-03  4.5426528931955213e-03  3.5269481422615964e-03  2.5483327099212628e-03  1.6018975685564338e-03  6.8280300915536175e-04  0.0000000000000000e+00  0.0000000000000000e+00  0.0000000000000000e+00  0.0000000000000000e+00  0.0000000000000000e+00  0.0000000000000000e+00  0.0000000000000000e+00  0.0000000000000000e+00  0.0000000000000000e+00  0.0000000000000000e+00  0.0000000000000000e+00  0.0000000000000000e+00  0.0000000000000000e+00  0.0000000000000000e+00  0.0000000000000000e+00  0.0000000000000000e+00  0.0000000000000000e+00  0.0000000000000000e+00  0.0000000000000000e+00  0.0000000000000000e+00  0.0000000000000000e+00  0.0000000000000000e+00  0.0000000000000000e+00  0.0000000000000000e+00  0.0000000000000000e+00  0.0000000000000000e+00  0.0000000000000000e+00  0.0000000000000000e+00  0.0000000000000000e+00  0.0000000000000000e+00  0.0000000000000000e+00  0.0000000000000000e+00  0.0000000000000000e+00  0.0000000000000000e+00  0.0000000000000000e+00  0.0000000000000000e+00  0.0000000000000000e+00  0.0000000000000000e+00  0.0000000000000000e+00  0.0000000000000000e+00  -8.8662332100361682e-05  6.5678722239484325e-04  1.3746587373895617e-03  2.0751392359972930e-03  2.7839825406315790e-03  3.4926852543395582e-03  4.2045802711308134e-03  4.9175627349988737e-03  5.6290423400920577e-03  6.3406634180000329e-03  7.0503072055090365e-03  7.7566881170515875e-03  8.4633464395497075e-03  9.1630811111267484e-03  9.8674000656250958e-03  1.0568636678408381e-02  1.1279241614269511e-02  1.1993297954974688e-02  1.2723238500470864e-02  1.3468490350934328e-02  1.4239136698472854e-02  1.5046031318028494e-02  1.5883458154937413e-02  1.6783115758852253e-02  1.7728190074455186e-02  1.8734118770758691e-02  1.9835879214507988e-02  2.0996587816318361e-02  2.2246397717565279e-02  2.3601862778761893e-02  2.5057018730776169e-02  2.6570627399854409e-02  2.8225494864233695e-02  2.9938174338360768e-02  3.1754125381960402e-02  3.3619694930579674e-02  3.5582010509296907e-02  3.7564728993367630e-02  3.9596652115922705e-02  4.1639223632072814e-02  4.3643517401636189e-02  4.5657157089661601e-02  4.7600074188669517e-02  4.9470539053486258e-02  5.1227279490436102e-02  5.2872445771243913e-02  5.4406739228804520e-02  5.5765515135375740e-02  5.6985571437189693e-02  5.8006838529973653e-02  5.8861600556308451e-02  5.9552588646683211e-02  6.0071870076322025e-02  6.0427208744061899e-02  6.0672953130205265e-02  6.0744937442814131e-02  6.0740807079224808e-02  6.0658521837529386e-02  6.0536485871441344e-02  6.0392097438408690e-02  6.0267882694593392e-02  6.0209421968090079e-02  6.0228916161842012e-02  6.0347896444146849e-02  6.0611735656414735e-02  6.1043170821148109e-02  6.1663717845576067e-02  6.2489516333548108e-02  6.3526834150381933e-02  6.4735797450266502e-02  6.6202006672650138e-02  6.7849555186401234e-02  6.9693809046507085e-02  7.1660807547569955e-02  7.3826932041069035e-02  7.6053016165398821e-02  7.8367496141676457e-02  8.0755699038157075e-02  8.3127155854770485e-02  8.5506017326225522e-02  8.7827617252606419e-02  9.0098102701011290e-02  9.2272070776221474e-02  9.4358596435168973e-02  9.6334502521804519e-02  9.8219546174129882e-02  9.9998011165871897e-02  1.0167369405380482e-01  1.0328927081036446e-01  1.0483729792238604e-01  1.0631790931618169e-01  1.0775324381308506e-01  1.0916206334660598e-01  1.1052160110987154e-01  1.1184688562362770e-01  1.1313981793866894e-01  1.1438250781637932e-01  1.1555922585339390e-01  1.1665883177792290e-01  1.1769496263485552e-01  1.1861390961805671e-01  1.1944339341455766e-01  1.2015998583111810e-01  1.2077493246733127e-01  1.2131797042892757e-01  1.2177598240242747e-01  1.2219965729856019e-01  1.2264106409267206e-01  1.2311141219071808e-01  1.2366387292413772e-01  1.2432299041385707e-01  1.2512651719626766e-01  1.2608435808441962e-01  1.2723703808908765e-01  1.2851159404501247e-01  1.2992697044818532e-01  1.3136159849864043e-01  1.3280488378691210e-01  1.3410862219715408e-01  1.3511795917256969e-01  1.3576546717832427e-01  1.3587784551852838e-01  1.3520930068950013e-01  1.3402535893885761e-01  1.3160616989118393e-01  1.2852237717982959e-01  1.2444702946601345e-01  1.1974537880454372e-01  1.1419798154718987e-01  1.0862326280287127e-01  1.0275660198758589e-01  9.7328755324771796e-02  9.2600311137280664e-02  8.9205602618654040e-02  8.6766393042732246e-02  8.7012064067140626e-02  8.8817026112436012e-02  9.2960223279133850e-02  9.9428353993858187e-02  1.0785094353230580e-01  1.1858293915394320e-01  1.3042891062654136e-01  1.4416087622488941e-01  1.5832980815572575e-01  1.7258488409460365e-01  1.8721468208184991e-01  2.0075055494901262e-01  2.1290861449874418e-01  2.2391619826054235e-01  2.3269966770878481e-01  2.3940352509085719e-01  2.4359430841962942e-01  2.4561469400863151e-01  2.4481713774646449e-01  2.4140832688181918e-01  2.3555927615205052e-01  2.2713382272124344e-01  2.1653812534264028e-01  2.0313972681906017e-01  1.8822320208106424e-01  1.7153403134781847e-01  1.5304852863033458e-01  1.3346541166920123e-01  1.1318691250883162e-01  9.2757909795832774e-02  7.2105423481102646e-02  5.2491498363859364e-02  3.3951262727940787e-02  1.6804026528174025e-02  1.5420723003525087e-03  -1.1678434303924954e-02  -2.2475916178215885e-02  -3.0890682267228367e-02  -3.7115246354298026e-02  -4.0934774609055320e-02  -4.2876536702897830e-02  -4.2865667250967042e-02  -4.1532297425684511e-02  -3.8306997424026913e-02  -3.4200948465528735e-02  -2.8762426649195861e-02  -2.2293125802628561e-02  -1.4697115699468846e-02  -6.1172167243423231e-03  3.8099585847059781e-03  1.4749595219228567e-02  2.7047402036598635e-02  4.0840627507209487e-02  5.5920887672707781e-02  7.2474569501902369e-02  9.0348082702413735e-02  1.0949577141732172e-01  1.3008547174743687e-01  1.5143563639600047e-01  1.7423404833600212e-01  1.9723635945223239e-01  2.2128896232362483e-01  2.4501326526207398e-01  2.6889732058605087e-01  2.9206085658345665e-01  3.1457921091754387e-01  3.3578344438453356e-01  3.5554153966171198e-01  3.7388114192961280e-01  3.8992995073665598e-01  4.0452787339521173e-01  4.1717055147684412e-01  4.2778581983691882e-01  4.3675023923090689e-01  4.4416042087051988e-01  4.5028082368028316e-01  4.5507987833353802e-01  4.5897168806121530e-01  4.6180393351471993e-01  4.6413658453076062e-01  4.6578036986233451e-01  4.6701794248684747e-01  4.6788609615540960e-01  4.6848204616802441e-01  -9.3300406824445536e-01  -8.8067488766216073e-01  -5.8273725179875668e-01  -5.3998536065164429e-02  6.8522065327357118e-01  1.3288746567255916e+00  1.8034821653138138e+00  1.9696126471757316e+00  1.7728984652139668e+00  1.2724482879242374e+00  6.1405840943266343e-01  -1.3157788753258809e-01  -7.2227928102925965e-01  -1.0251169475203294e+00  -1.1481525460615429e+00  -9.0297031619998813e-01  -7.7507360186862351e-01  -6.8715863707909064e-01  -6.3635048644592607e-01  -5.9216655713581334e-01  -5.2819039922021982e-01  -4.5823996149485424e-01  -4.1477308788805650e-01  -3.9428414846275145e-01  -3.7648597766467251e-01  -3.5640416810779257e-01  -3.5747259592693981e-01  -3.9925759932645033e-01  -4.8805843461655163e-01  -6.2032457312537692e-01  -8.4845963914612729e-02  5.5262870316760346e-02  8.5552174025670988e-02  3.6549473147663027e-02  2.4943850016638781e-02  1.0507030109938804e-01  1.0686508129645077e-01  9.9884476434455832e-02  1.6551689090200019e-02  6.0677190507209620e-02  4.2849001105940310e-02  3.3616520679129853e-02  7.6210713403286043e-02  1.2171961568375196e-02  1.0168744535964103e-01  7.6199643264489900e-02  -5.2003874594816257e-01  2.2780029364852986e-01  1.7384621057140473e-01  1.2936148572520928e-01  1.1783989971695800e-01  1.1946000564744777e-02  1.2494281485881299e-01  1.8038153380995975e-01  2.3818345674951800e-02  1.2407618506631325e-01  9.8195466090493067e-02  2.8832156058487473e-02  6.0726439854292116e-02  8.0552390564127024e-02  2.5650793493215449e-02  4.8202979078137989e-02  -3.8382877820695924e-02  1.2764609515156627e-01  8.5082243317226400e-02  5.2033034506854314e-01  2.6480467878396422e-02  4.8498797736957727e-01  1.0734362824530924e-01  6.4490428237020565e-03  1.5997833318570095e-01  5.9137740546236231e-02  5.8610595839709472e-03  1.4624535674080655e-01  2.2438433629469259e-02  -5.7940288651647132e-02  -2.0177999045308709e-01  1.2796719659183642e-01  2.3805425687426118e-01  7.6906752794694527e-02  8.8763917223103981e-03  1.4718132594968522e-01  8.7543865769132298e-02  2.9377066240934127e-02  -6.2325105931431368e-01  -7.2993355695882334e-02  1.0635586117061864e-01  1.0151132293685888e-01  1.3324280410435901e-01  1.6213538932401714e-02  2.5565840927082512e-01  9.6448265837845701e-02  1.8908418624928022e-02  7.6838527468228349e-02  6.0377295259126870e-02  4.3160841606684749e-02  9.1786579037896543e-01  1.6743705686601035e-01  6.4437404210249211e-02  5.9173944998630400e-02  3.9004238908886095e-02  1.8644555658533936e-02  9.1355220225717876e-02  3.1070206971034797e-02  8.5298350847788862e-01  7.0565972602256140e-03  1.7697906859943630e-01  1.0717473167600007e-01  3.7364553593898710e-02  1.2605153517834750e-01  6.0538355350159084e-02  1.1326035313303984e-01  4.9653974534419373e-02  1.6778294619885500e-01  8.3078222595085821e-02  -8.7984250631996816e-02  1.2199092102751842e-01  4.2343395460950457e-02  6.7245167508526230e-02  1.9214738364365786e-02  9.1487993920624983e-02  8.8647391997513258e-02  8.6235386992366200e-02  1.0047195998420544e-02  1.2666181171983140e-01  8.2413415211601074e-02  -8.4747360255723869e-01  8.5428219250227991e-02  7.2934482862406808e-02  1.8104912012758728e-01  6.7919783060145386e-02  1.0503550705400654e-01  1.6741812357616187e-01  1.2591041101161024e-01  -3.5705491791492955e-01  5.6562487216908590e-02  -4.5470526440325038e-02  1.6262150591362434e-01  -5.8735625057587526e-01  1.0908219989772563e-01  1.2662819359743932e-01  1.2274560196961971e-01  1.0938660575811762e-01  2.7271480295280346e-02  7.1842873121438125e-02  1.6741180136841879e-01  7.9813502290972768e-02  1.1659415866084652e-01  2.8927938430251692e-02  3.1500266517844273e-02  9.5090730260716405e-02  1.6211654937492195e-01  2.5058536037089324e-01  1.2693068947292022e-01  1.2959675810848587e-01  4.6250174762171921e-02  6.1383322279114354e-02  1.5513223366211149e-01  4.8330059984361774e-02  7.1518512792276825e-03  1.3413253861925791e-02  5.1308851745390738e-02  9.5897370312313671e-02  1.7413370125138544e-01  4.7610481890863232e-01  -3.6448449666456433e-02  3.3860644868151236e-03  5.9116971920364761e-02  1.2865446160860550e-02  4.3999570098829627e-01  8.8486682284427146e-02  2.2833879515200491e-02  8.1052579192025895e-02  8.8468768007068030e-02  1.8219253003445454e-01  1.6908640954968002e-01  8.7320813715294585e-02  2.1626697714887930e-02  2.8982741569427029e-02  9.0359127733488018e-02  1.0486538354322462e-01  4.1159547702711763e-01  5.9859362729230065e-02  6.8749189693738166e-02  3.0093169770676324e-02  5.2225307012985001e-02  2.7420725741224967e-02  1.1466653993305433e-01  -7.6763970433189596e-02  3.3189679313935638e-03  6.4428747741734071e-01  -3.3435220526863252e-01  7.9252432112661506e-03  5.8848589143880706e-02  8.5058139355127835e-02  3.7046942814659950e-01  7.8468594137719144e-02  2.4632886843698798e-02  3.5031088903786245e-01  1.1996010087956917e-01  1.2234976346178815e-01  -3.4586364217765772e-02  9.6237717244353621e-02  2.3727928931578029e-02  2.9745444060433886e-02  9.4369624198943874e-02  7.5170100450957433e-01  5.9743189018374965e-01  3.6486855544257277e-02  4.8970460062003462e-03  1.1392126149132970e-01  -2.8587989437642580e-01  2.4250363348158627e-02  9.6948397616848786e-02  2.2569233254773847e-03  7.0408360057798311e-02  1.0299239348134588e-01  1.3390467318901100e-02  -3.4085956543530765e-01  1.2610468241242047e-02  5.3580341041709639e-02  6.1473899913827866e-02  1.1927351105401801e-01  3.9228224509359165e-02  1.0544973285145542e-01  5.7662369944169256e-03  6.7116447144072708e-02  -1.4045219333203057e-01  1.2993687517629779e-01  9.1447852819224464e-04  7.1571321229195288e-03  1.3887563499046507e-01  2.2646469420267554e-01  1.1177102561048012e-01  2.3899762615060983e-02  4.3288587890145676e-02  1.2640185803746976e-01  1.2864197760521381e+00  7.9953380406317123e-02  2.3880334024545327e-02  8.8529123687177330e-02  5.7053122247432073e-02  8.5690094623731039e-01  5.8857439346340475e-02  1.7012230027216940e-01  1.4072003329910920e-01  1.6380237905771391e-01  2.0082668962199603e-02  1.4574672886960537e-02  2.7608045049517044e-02  7.6564596983059202e-02  8.8070203629295118e-01  1.0907072394655973e-01  -2.5074757175492240e-01  1.3461898513571291e-01  9.0072367845154044e-02  3.3902500283552142e-02  3.2063914386533908e-02  1.2737530686467508e-01  2.2585261232474083e-01  2.2228609930945933e-01  1.0335848529967058e-02  4.7276783895470756e-02  2.1492773804654497e-01  1.8019263600317417e-01  1.4568404455161549e-01  3.3787579096413861e-02  1.1571690803842945e-01  1.3612156554839880e-01  -1.4571138547125342e-02  6.4557086699860114e-02  -1.7390054795777130e-01  1.5962675036728863e-01  3.1781527051493265e-02  6.1971083517072992e-02  1.3035845277703982e-02  3.6211548120064769e-03  1.0027625157810448e-01  1.3350072316827319e-01  1.4410568900826903e-01  8.0509443029034525e-02  -4.2633704060511979e-01  8.8707817801288530e-02  1.0698106725423390e-01  1.1760215419687158e-01  2.0942015894310061e-02  1.6422475379277282e-01  1.1102003878793619e-01  1.3184373141877487e-01  -9.5769024081222884e-02  5.8975945332743106e-02  1.3166819836732671e-01  -2.8532594330958483e-01  7.6016376098414079e-02  9.6774554009962072e-02  6.6033590810418291e-02  1.6220032860516525e-02  -6.7563944147775479e-01  3.8967778048957763e-02  8.8475468344679412e-02  5.3920348380377424e-02  -4.8484921929940424e-02  9.7664995612434746e-02  1.46