<?xml version="1.0"?>
<VTKFile type="UnstructuredGrid"  version="0.1"  >
<UnstructuredGrid>
<Piece  NumberOfPoints="12123" NumberOfCells="23692">
<Points>
<DataArray  type="Float64"  NumberOfComponents="3"  format="ascii">0 0 0  0 0.41 0  2.2 0 0  2.2 0.41 0  0.2 0.15 0  0.2 0.25 0  0 0.4000000000000008 0  0 0.3900000000000259 0  0 0.3800000000000606 0  0 0.3700000000000953 0  0 0.3600000000001082 0  0 0.3500000000001241 0  0 0.3400000000001558 0  0 0.3300000000001905 0  0 0.3200000000002133 0  0 0.3100000000002381 0  0 0.3000000000002728 0  0 0.2900000000003075 0  0 0.2800000000003204 0  0 0.2700000000003551 0  0 0.2600000000003897 0  0 0.2500000000004243 0  0 0.2400000000004419 0  0 0.2300000000004503 0  0 0.2200000000004849 0  0 0.2100000000005195 0  0 0.2000000000005203 0  0 0.1900000000004874 0  0 0.1800000000004544 0  0 0.1700000000004476 0  0 0.1600000000004316 0  0 0.1500000000003986 0  0 0.1400000000003795 0  0 0.1300000000003759 0  0 0.1200000000003428 0  0 0.1100000000003098 0  0 0.1000000000002768 0  0 0.09000000000024383 0  0 0.08000000000021068 0  0 0.07000000000020096 0  0 0.0600000000001879 0  0 0.05000000000015475 0  0 0.04000000000012166 0  0 0.03000000000008857 0  0 0.02000000000005536 0  0 0.01000000000002221 0  0.009999999999981288 0 0  0.01999999999996251 0 0  0.02999999999994353 0 0  0.0399999999999241 0 0  0.04999999999990434 0 0  0.05999999999988457 0 0  0.06999999999986481 0 0  0.07999999999984503 0 0  0.08999999999982462 0 0  0.09999999999980327 0 0  0.1099999999997819 0 0  0.1199999999997606 0 0  0.1299999999997423 0 0  0.1399999999997245 0 0  0.1499999999997079 0 0  0.1599999999996929 0 0  0.1699999999996795 0 0  0.179999999999666 0 0  0.1899999999996523 0 0  0.1999999999996356 0 0  0.209999999999619 0 0  0.2199999999996025 0 0  0.2299999999995879 0 0  0.2399999999995744 0 0  0.249999999999561 0 0  0.2599999999995468 0 0  0.2699999999995302 0 0  0.2799999999995105 0 0  0.2899999999994876 0 0  0.2999999999994596 0 0  0.3099999999994304 0 0  0.3199999999994012 0 0  0.3299999999993699 0 0  0.3399999999993343 0 0  0.3499999999992988 0 0  0.3599999999992632 0 0  0.3699999999992334 0 0  0.3799999999992042 0 0  0.3899999999991749 0 0  0.3999999999991457 0 0  0.4099999999991165 0 0  0.4199999999990872 0 0  0.429999999999058 0 0  0.4399999999990288 0 0  0.4499999999989995 0 0  0.4599999999989703 0 0  0.4699999999989373 0 0  0.4799999999989018 0 0  0.4899999999988663 0 0  0.4999999999988318 0 0  0.5099999999988025 0 0  0.5199999999987733 0 0  0.529999999998744 0 0  0.5399999999987057 0 0  0.5499999999986639 0 0  0.559999999998622 0 0  0.5699999999985838 0 0  0.5799999999985546 0 0  0.5899999999985253 0 0  0.5999999999984962 0 0  0.6099999999984668 0 0  0.6199999999984376 0 0  0.6299999999984084 0 0  0.6399999999983792 0 0  0.6499999999983499 0 0  0.6599999999983207 0 0  0.6699999999982915 0 0  0.6799999999982622 0 0  0.6899999999982329 0 0  0.6999999999982038 0 0  0.7099999999981744 0 0  0.7199999999981452 0 0  0.7299999999981162 0 0  0.7399999999980867 0 0  0.7499999999980577 0 0  0.7599999999980284 0 0  0.769999999997999 0 0  0.7799999999979699 0 0  0.7899999999979407 0 0  0.7999999999979114 0 0  0.8099999999978793 0 0  0.8199999999978375 0 0  0.8299999999977956 0 0  0.8399999999977538 0 0  0.8499999999977218 0 0  0.8599999999976925 0 0  0.8699999999976633 0 0  0.8799999999976341 0 0  0.8899999999976047 0 0  0.8999999999975756 0 0  0.9099999999975463 0 0  0.9199999999975172 0 0  0.9299999999974878 0 0  0.9399999999974586 0 0  0.9499999999974295 0 0  0.9599999999974002 0 0  0.969999999997371 0 0  0.9799999999973418 0 0  0.9899999999973124 0 0  0.9999999999972872 0 0  1.009999999997271 0 0  1.019999999997246 0 0  1.029999999997217 0 0  1.039999999997188 0 0  1.049999999997163 0 0  1.059999999997159 0 0  1.069999999997144 0 0  1.079999999997114 0 0  1.089999999997085 0 0  1.099999999997056 0 0  1.109999999997077 0 0  1.119999999997098 0 0  1.12999999999712 0 0  1.139999999997141 0 0  1.149999999997162 0 0  1.159999999997205 0 0  1.169999999997248 0 0  1.179999999997269 0 0  1.18999999999729 0 0  1.199999999997312 0 0  1.209999999997333 0 0  1.219999999997354 0 0  1.229999999997375 0 0  1.239999999997403 0 0  1.249999999997449 0 0  1.259999999997482 0 0  1.269999999997503 0 0  1.279999999997525 0 0  1.289999999997546 0 0  1.299999999997567 0 0  1.309999999997589 0 0  1.31999999999761 0 0  1.329999999997648 0 0  1.339999999997694 0 0  1.349999999997717 0 0  1.359999999997738 0 0  1.369999999997759 0 0  1.379999999997781 0 0  1.389999999997802 0 0  1.399999999997823 0 0  1.409999999997846 0 0  1.419999999997893 0 0  1.42999999999793 0 0  1.439999999997952 0 0  1.449999999997973 0 0  1.459999999997994 0 0  1.469999999998015 0 0  1.479999999998037 0 0  1.489999999998058 0 0  1.499999999998091 0 0  1.509999999998137 0 0  1.519999999998165 0 0  1.529999999998186 0 0  1.539999999998207 0 0  1.549999999998229 0 0  1.55999999999825 0 0  1.569999999998271 0 0  1.579999999998293 0 0  1.589999999998336 0 0  1.599999999998378 0 0  1.6099999999984 0 0  1.619999999998421 0 0  1.629999999998442 0 0  1.639999999998464 0 0  1.649999999998485 0 0  1.659999999998506 0 0  1.669999999998528 0 0  1.679999999998549 0 0  1.68999999999857 0 0  1.699999999998592 0 0  1.709999999998634 0 0  1.719999999998677 0 0  1.729999999998699 0 0  1.73999999999872 0 0  1.749999999998741 0 0  1.759999999998762 0 0  1.769999999998784 0 0  1.779999999998805 0 0  1.789999999998833 0 0  1.799999999998879 0 0  1.809999999998912 0 0  1.819999999998933 0 0  1.829999999998954 0 0  1.839999999998976 0 0  1.849999999998997 0 0  1.859999999999018 0 0  1.86999999999904 0 0  1.879999999999078 0 0  1.889999999999124 0 0  1.899999999999147 0 0  1.909999999999168 0 0  1.919999999999189 0 0  1.929999999999211 0 0  1.939999999999232 0 0  1.949999999999253 0 0  1.959999999999276 0 0  1.969999999999323 0 0  1.97999999999936 0 0  1.989999999999381 0 0  1.999999999999387 0 0  2.009999999999383 0 0  2.019999999999379 0 0  2.029999999999375 0 0  2.039999999999371 0 0  2.049999999999391 0 0  2.059999999999437 0 0  2.069999999999521 0 0  2.079999999999617 0 0  2.089999999999663 0 0  2.099999999999694 0 0  2.109999999999689 0 0  2.119999999999686 0 0  2.129999999999681 0 0  2.139999999999722 0 0  2.149999999999776 0 0  2.159999999999873 0 0  2.169999999999948 0 0  2.179999999999994 0 0  2.190000000000004 0 0  2.2 0.009999999999981952 0  2.2 0.01999999999996097 0  2.2 0.02999999999994221 0  2.2 0.03999999999992531 0  2.2 0.04999999999991126 0  2.2 0.05999999999988534 0  2.2 0.06999999999985251 0  2.2 0.07999999999982024 0  2.2 0.08999999999980195 0  2.2 0.0999999999997695 0  2.2 0.1099999999997346 0  2.2 0.1199999999997104 0  2.2 0.1299999999996865 0  2.2 0.1399999999996516 0  2.2 0.1499999999996167 0  2.2 0.1599999999995818 0  2.2 0.169999999999564 0  2.2 0.1799999999995553 0  2.2 0.1899999999995205 0  2.2 0.1999999999994856 0  2.2 0.2099999999994845 0  2.2 0.2199999999995173 0  2.2 0.2299999999995501 0  2.2 0.2399999999995566 0  2.2 0.2499999999995723 0  2.2 0.259999999999605 0  2.2 0.2699999999996239 0  2.2 0.2799999999996273 0  2.2 0.2899999999996601 0  2.2 0.2999999999996928 0  2.2 0.3099999999997256 0  2.2 0.3199999999997584 0  2.2 0.3299999999997912 0  2.2 0.3399999999998008 0  2.2 0.3499999999998136 0  2.2 0.3599999999998464 0  2.2 0.3699999999998793 0  2.2 0.3799999999999122 0  2.2 0.3899999999999451 0  2.2 0.3999999999999779 0  2.190000000000005 0.41 0  2.180000000000009 0.41 0  2.170000000000015 0.41 0  2.160000000000019 0.41 0  2.150000000000024 0.41 0  2.140000000000029 0.41 0  2.130000000000033 0.41 0  2.120000000000038 0.41 0  2.110000000000043 0.41 0  2.100000000000048 0.41 0  2.090000000000087 0.41 0  2.080000000000142 0.41 0  2.070000000000197 0.41 0  2.06000000000024 0.41 0  2.050000000000245 0.41 0  2.040000000000249 0.41 0  2.030000000000254 0.41 0  2.020000000000259 0.41 0  2.010000000000264 0.41 0  2.000000000000268 0.41 0  1.990000000000273 0.41 0  1.980000000000278 0.41 0  1.970000000000283 0.41 0  1.960000000000287 0.41 0  1.950000000000292 0.41 0  1.940000000000302 0.41 0  1.930000000000332 0.41 0  1.920000000000362 0.41 0  1.910000000000392 0.41 0  1.900000000000422 0.41 0  1.890000000000452 0.41 0  1.880000000000482 0.41 0  1.870000000000503 0.41 0  1.860000000000508 0.41 0  1.850000000000529 0.41 0  1.840000000000559 0.41 0  1.830000000000588 0.41 0  1.820000000000618 0.41 0  1.810000000000648 0.41 0  1.800000000000678 0.41 0  1.790000000000708 0.41 0  1.780000000000719 0.41 0  1.770000000000725 0.41 0  1.760000000000755 0.41 0  1.750000000000785 0.41 0  1.740000000000815 0.41 0  1.730000000000845 0.41 0  1.720000000000875 0.41 0  1.710000000000905 0.41 0  1.700000000000931 0.41 0  1.690000000000936 0.41 0  1.680000000000951 0.41 0  1.670000000000981 0.41 0  1.660000000001048 0.41 0  1.650000000001128 0.41 0  1.640000000001208 0.41 0  1.630000000001275 0.41 0  1.620000000001305 0.41 0  1.610000000001321 0.41 0  1.600000000001325 0.41 0  1.590000000001351 0.41 0  1.580000000001384 0.41 0  1.57000000000144 0.41 0  1.560000000001495 0.41 0  1.55000000000155 0.41 0  1.540000000001588 0.41 0  1.530000000001618 0.41 0  1.520000000001623 0.41 0  1.510000000001634 0.41 0  1.500000000001664 0.41 0  1.490000000001708 0.41 0  1.480000000001763 0.41 0  1.470000000001818 0.41 0  1.460000000001871 0.41 0  1.450000000001901 0.41 0  1.440000000001922 0.41 0  1.430000000001926 0.41 0  1.420000000001947 0.41 0  1.410000000001977 0.41 0  1.400000000002031 0.41 0  1.390000000002086 0.41 0  1.380000000002141 0.41 0  1.370000000002184 0.41 0  1.360000000002214 0.41 0  1.350000000002224 0.41 0  1.340000000002231 0.41 0  1.33000000000226 0.41 0  1.320000000002299 0.41 0  1.310000000002354 0.41 0  1.300000000002394 0.41 0  1.290000000002424 0.41 0  1.280000000002431 0.41 0  1.270000000002435 0.41 0  1.26000000000244 0.41 0  1.250000000002457 0.41 0  1.240000000002487 0.41 0  1.230000000002536 0.41 0  1.22000000000259 0.41 0  1.21000000000262 0.41 0  1.200
[...]
<PointData  Scalars="p"> 
<DataArray  type="Float64"  Name="p"  format="ascii">3.9302849061266470e-01  4.7934068145687053e-01  0.0000000000000000e+00  0.0000000000000000e+00  -1.0907062600697210e+00  -7.5643656487361466e-01  4.7924034887607375e-01  4.7960330783963795e-01  4.8111563924191275e-01  4.8442454355027009e-01  4.9008328033659582e-01  4.9836077290840786e-01  5.0975832190250481e-01  5.2433128268975926e-01  5.4218413119934450e-01  5.6311986810259340e-01  5.8676341164000190e-01  6.1253715595100811e-01  6.3960220418413527e-01  6.6706990917167175e-01  6.9376665042660224e-01  7.1803312335133695e-01  7.3930673396280921e-01  7.5585795960763780e-01  7.6677616283426553e-01  7.7123146750522509e-01  7.6786904819599422e-01  7.5828605408548710e-01  7.4163731884605355e-01  7.1877345025133099e-01  6.9107389745091241e-01  6.6009513849723611e-01  6.2678937545990843e-01  5.9250487385496042e-01  5.5904651488840473e-01  5.2711757611950472e-01  4.9781431365389933e-01  4.7177754951067041e-01  4.4957060658745374e-01  4.3127463562751500e-01  4.1700571972223760e-01  4.0650613594455609e-01  3.9941051503587804e-01  3.9523565111694070e-01  3.9332443946576290e-01  3.9288641822806686e-01  3.9251492292053303e-01  3.9188340377516595e-01  3.9077710319905806e-01  3.8901174421577128e-01  3.8641330403317009e-01  3.8276273030992314e-01  3.7786140624539949e-01  3.7154391183694579e-01  3.6343914288836787e-01  3.5363539359159446e-01  3.4127878306130605e-01  3.2708951217635268e-01  3.1010422492665435e-01  2.9068426012944421e-01  2.6888335675556185e-01  2.4452089012348235e-01  2.1833713490351137e-01  1.9014506305142456e-01  1.6101181875140219e-01  1.3077017735079127e-01  1.0061939888601582e-01  7.0876378975346557e-02  4.1875713214002901e-02  1.4586068199577305e-02  -1.0591275997336759e-02  -3.3872386027895600e-02  -5.4006821091080535e-02  -7.2226829595002512e-02  -8.6379396702744457e-02  -9.7662714757574820e-02  -1.0586177500912365e-01  -1.1098788186415874e-01  -1.1268893109022604e-01  -1.1190275607120778e-01  -1.0736127307893800e-01  -1.0051676278492998e-01  -9.1032324652551871e-02  -7.8268356808877379e-02  -6.4260390956276392e-02  -4.7333912386285620e-02  -2.8692620985057139e-02  -9.0780232447401805e-03  1.2336334358634375e-02  3.3890497170125045e-02  5.6184256253947927e-02  7.7897375686754478e-02  9.9105799639725378e-02  1.1937267663770251e-01  1.3766169423574823e-01  1.5454571622587254e-01  1.6856761708022955e-01  1.8058918103567184e-01  1.8997638289207586e-01  1.9648351400213457e-01  1.9986506407024332e-01  2.0055601870145592e-01  1.9847407702922473e-01  1.9309653625459075e-01  1.8478244707792521e-01  1.7401720086738295e-01  1.6045980021283121e-01  1.4485706554888284e-01  1.2824491732109411e-01  1.1031321407312755e-01  9.2571776784231702e-02  7.5395649576972798e-02  5.9986615135326188e-02  4.6289267421657281e-02  3.5551448324968378e-02  2.8334262726863332e-02  2.4119106338921514e-02  2.3423885448380394e-02  2.5913639203900826e-02  3.1197513287969492e-02  3.9209524132334375e-02  4.8723327586907186e-02  5.9789331283665773e-02  7.1168869708053112e-02  8.2782974981024590e-02  9.4021185261344745e-02  1.0425294683675738e-01  1.1319164626155578e-01  1.2108352679373818e-01  1.2720423849821416e-01  1.3230478671480114e-01  1.3579533785188266e-01  1.3831276714418261e-01  1.3984234464396442e-01  1.4064131851723799e-01  1.4082149864018745e-01  1.4047412256582129e-01  1.3980880719277389e-01  1.3883689621429238e-01  1.3758411222326186e-01  1.3608224674589686e-01  1.3434107679313181e-01  1.3236245283363104e-01  1.3011940652686430e-01  1.2760596119413842e-01  1.2484243913405117e-01  1.2184537873973172e-01  1.1861726806859076e-01  1.1532348227942789e-01  1.1190407073246296e-01  1.0849785364561311e-01  1.0515179118451569e-01  1.0203895113018603e-01  9.9120855459190388e-02  9.6510928394570122e-02  9.4378340618303275e-02  9.2570751516312555e-02  9.1260830908626994e-02  9.0337285528082248e-02  8.9892672507133162e-02  8.9705819166709194e-02  8.9858470285933148e-02  9.0184380449174387e-02  9.0595731609323243e-02  9.0999199530822819e-02  9.1297830233599470e-02  9.1373356663681890e-02  9.1177436968188724e-02  9.0620917359830674e-02  8.9690601380940649e-02  8.8294349006599021e-02  8.6464907612495256e-02  8.4282200170603588e-02  8.1660462602937647e-02  7.8701038693493347e-02  7.5514861583145118e-02  7.2139913590411317e-02  6.8624304872847569e-02  6.5041282704465603e-02  6.1606359869763740e-02  5.8276468004734315e-02  5.5081970822973426e-02  5.2280731715060043e-02  4.9680006360334088e-02  4.7475065522647998e-02  4.5677176933555233e-02  4.4166958013146962e-02  4.3059377235372544e-02  4.2327470048548123e-02  4.1918494590876022e-02  4.1801377441200209e-02  4.1974697639882153e-02  4.2293565134757218e-02  4.2848112645737096e-02  4.3484021608810965e-02  4.4216075155204343e-02  4.4931423923196774e-02  4.5647983566572126e-02  4.6293588175391052e-02  4.6831262047913574e-02  4.7241235163446950e-02  4.7472292694222505e-02  4.7564280344169499e-02  4.7442740473791378e-02  4.7095901771685163e-02  4.6577052064965548e-02  4.5811955584217155e-02  4.4865709543079522e-02  4.3734206995843176e-02  4.2422791533048593e-02  4.0956966368892102e-02  3.9324796050306740e-02  3.7605049500570580e-02  3.5767680773916809e-02  3.3858530656739348e-02  3.1920612570002345e-02  2.9925614184932791e-02  2.7938451889433082e-02  2.5944450257296321e-02  2.3992622137192589e-02  2.2106589554192684e-02  2.0253624166594320e-02  1.8489993163603766e-02  1.6785053604514634e-02  1.5194203825027577e-02  1.3672828109772888e-02  1.2284149668579896e-02  1.0953987475869915e-02  9.7336949984902794e-03  8.6031980537351806e-03  7.5794395391558297e-03  6.6302471489185161e-03  5.7669923077416467e-03  4.9760410048632821e-03  4.2582448470661104e-03  3.6146777790833011e-03  3.0195974569858465e-03  2.4994347951531075e-03  2.0237873880668581e-03  1.5975625515710014e-03  1.2247215499054929e-03  8.8959959336441579e-04  6.0214877448040163e-04  3.5923914193418426e-04  1.5272821039956911e-04  -1.5004648480594460e-05  -1.3987083758634506e-04  -2.3093899436951699e-04  -2.8114080275933457e-04  -3.0075412871699190e-04  -2.8043991134293005e-04  -2.3144478074174510e-04  -1.4774282715936712e-04  -3.9671604011677039e-05  9.6657831772609468e-05  2.5901163493147086e-04  4.3518371740883667e-04  6.3556887194781450e-04  8.4254425229347428e-04  1.0473708088013830e-03  1.2631994238058416e-03  1.4583057917617588e-03  1.6291561759780961e-03  1.7766847140470406e-03  1.6532612310181437e-03  0.0000000000000000e+00  0.0000000000000000e+00  0.0000000000000000e+00  0.0000000000000000e+00  0.0000000000000000e+00  0.0000000000000000e+00  0.0000000000000000e+00  0.0000000000000000e+00  0.0000000000000000e+00  0.0000000000000000e+00  0.0000000000000000e+00  0.0000000000000000e+00  0.0000000000000000e+00  0.0000000000000000e+00  0.0000000000000000e+00  0.0000000000000000e+00  0.0000000000000000e+00  0.0000000000000000e+00  0.0000000000000000e+00  0.0000000000000000e+00  0.0000000000000000e+00  0.0000000000000000e+00  0.0000000000000000e+00  0.0000000000000000e+00  0.0000000000000000e+00  0.0000000000000000e+00  0.0000000000000000e+00  0.0000000000000000e+00  0.0000000000000000e+00  0.0000000000000000e+00  0.0000000000000000e+00  0.0000000000000000e+00  0.0000000000000000e+00  0.0000000000000000e+00  0.0000000000000000e+00  0.0000000000000000e+00  0.0000000000000000e+00  0.0000000000000000e+00  0.0000000000000000e+00  0.0000000000000000e+00  -3.1488595932255123e-05  -4.7982362740206844e-04  -1.1281206210731246e-03  -1.7647554682325695e-03  -2.3930661323731438e-03  -2.9790918216519649e-03  -3.5236063479141678e-03  -3.9992162699073854e-03  -4.4078429605868006e-03  -4.7058020787947696e-03  -4.9247327823655693e-03  -5.0199817362153749e-03  -5.0061132691595319e-03  -4.8767197830330861e-03  -4.6136053605134973e-03  -4.2408651243622184e-03  -3.7268274587380374e-03  -3.1187653478086884e-03  -2.3777872810066942e-03  -1.5495577990938861e-03  -6.1643842935158474e-04  4.0295923506084670e-04  1.4815900441662096e-03  2.6286160287440491e-03  3.8156687909060888e-03  5.0095199505568577e-03  6.2373485277688627e-03  7.4558236670147120e-03  8.6333954286272156e-03  9.7895832493805658e-03  1.0908360940653181e-02  1.1944825602751799e-02  1.2928853943896057e-02  1.3835343590849154e-02  1.4655156214330611e-02  1.5394086531651740e-02  1.6039373962853987e-02  1.6616726459535994e-02  1.7098972672381009e-02  1.7526366411485566e-02  1.7884293205700733e-02  1.8188156770277884e-02  1.8463118788848636e-02  1.8711975419785754e-02  1.8960334691265939e-02  1.9215365248172502e-02  1.9494224232441473e-02  1.9823294952531344e-02  2.0207584999613528e-02  2.0677505449401685e-02  2.1240507601479879e-02  2.1901537965018314e-02  2.2676523332753790e-02  2.3580780699814136e-02  2.4576638541282628e-02  2.5749906156357024e-02  2.7018982367616635e-02  2.8404424946761726e-02  2.9902832799787383e-02  3.1491855837242913e-02  3.3164649194408771e-02  3.4876074463843859e-02  3.6649008821808077e-02  3.8458209534916049e-02  4.0250205088854740e-02  4.2018834064770604e-02  4.3763560673088425e-02  4.5454166682720953e-02  4.7107352949350700e-02  4.8677194964575406e-02  5.0176029720473879e-02  5.1614224808722797e-02  5.2988126473036530e-02  5.4288704568867009e-02  5.5554957723558347e-02  5.6766802886826014e-02  5.7946566321120906e-02  5.9114865207571761e-02  6.0264475744171188e-02  6.1416920085843360e-02  6.2571088264952918e-02  6.3729776899399085e-02  6.4894678090251595e-02  6.6066601845683082e-02  6.7233902221786809e-02  6.8404306425822514e-02  6.9556286127792147e-02  7.0682881317022342e-02  7.1802567300809708e-02  7.2896857634200771e-02  7.3957822907337906e-02  7.5005919890178852e-02  7.6058895831286916e-02  7.7107264096623829e-02  7.8205047075070533e-02  7.9352126632311795e-02  8.0593353535347342e-02  8.1932319018260091e-02  8.3464170502542873e-02  8.5115316213884684e-02  8.6992104301091666e-02  8.9047221597233758e-02  9.1310491627075913e-02  9.3756201021819266e-02  9.6316584383801626e-02  9.8998647725870775e-02  1.0171269238237300e-01  1.0430775224841392e-01  1.0673803191687251e-01  1.0884587837767104e-01  1.1054459231337206e-01  1.1168294820212107e-01  1.1221051889656776e-01  1.1179042074102832e-01  1.1064516278325021e-01  1.0848201220832276e-01  1.0550579559610836e-01  1.0146266303027404e-01  9.6881034191803161e-02  9.1605299023481260e-02  8.5957148305590828e-02  8.0293709064389832e-02  7.4822422083603804e-02  6.9773828174832644e-02  6.6071891425496201e-02  6.3306735562807498e-02  6.2216589295360496e-02  6.2929050373038559e-02  6.5663307882022792e-02  7.0013684882527266e-02  7.6827052189793368e-02  8.5136466838555247e-02  9.4986834913755813e-02  1.0645645475253089e-01  1.1850670398537157e-01  1.3129777646352139e-01  1.4432497215269413e-01  1.5676120722627424e-01  1.6873457294708097e-01  1.7938239195544051e-01  1.8886667071831523e-01  1.9659508904711576e-01  2.0233235633814578e-01  2.0651870699302441e-01  2.0816842582830042e-01  2.0782383619448616e-01  2.0566388052806686e-01  2.0100740403821368e-01  1.9430714400765922e-01  1.8574226384080372e-01  1.7499266063343341e-01  1.6226261323975177e-01  1.4784939361619209e-01  1.3190329346536775e-01  1.1434233416069692e-01  9.5928236552047394e-02  7.6578102253842401e-02  5.7372044610787418e-02  3.7590006345440304e-02  1.8764679402978917e-02  1.2209136446402812e-03  -1.5184282458500052e-02  -2.9345313094157662e-02  -4.1697793435835177e-02  -5.1181991329305482e-02  -5.8187589497097646e-02  -6.2969045229377310e-02  -6.4676328990061385e-02  -6.4573075020002646e-02  -6.2231856415058705e-02  -5.8475995058309076e-02  -5.3675699795251511e-02  -4.7661763154911364e-02  -4.1473637309920000e-02  -3.4600759233285448e-02  -2.7808995859085306e-02  -2.0755866361629557e-02  -1.3933057882924383e-02  -6.8235910929182594e-03  3.9524265433988064e-04  7.8187136757852244e-03  1.5535597756016492e-02  2.3738159982796277e-02  3.2456786020542153e-02  4.1902842991826936e-02  5.2103298106972430e-02  6.3173518204135928e-02  7.5385067175033169e-02  8.8649277928281200e-02  1.0301667886366943e-01  1.1861695701394852e-01  1.3539668530615231e-01  1.5349450392473796e-01  1.7246650204352929e-01  1.9282611549221867e-01  2.1361584397164138e-01  2.3545386880039185e-01  2.5728018108766965e-01  2.7939916007982152e-01  3.0106306390299947e-01  3.2229088227434333e-01  3.4246420051607923e-01  3.6146059860064844e-01  3.7923417432559964e-01  3.9499182249730552e-01  4.0952599075514368e-01  4.2227823739108911e-01  4.3317224258366815e-01  4.4258652299817069e-01  4.5053131728660878e-01  4.5726353688844656e-01  4.6268184941909318e-01  4.6719071528478257e-01  4.7058329149888006e-01  4.7342565878684145e-01  4.7547462012484093e-01  4.7700824340883691e-01  4.7807512004323932e-01  4.7876578031255262e-01  -8.5761845298125505e-01  -7.8725532913854024e-01  -4.8300682085918273e-01  4.4697280607817497e-02  7.6318484163257683e-01  1.3852403569578684e+00  1.8260406274789684e+00  1.9546092613978687e+00  1.7205232347637351e+00  1.1910199329495734e+00  5.1394742752155909e-01  -2.4515349538488784e-01  -8.3000243851331368e-01  -1.1155836847147280e+00  -1.2132264004839384e+00  -9.2004207723636822e-01  -7.7705243337516339e-01  -6.8100959080377244e-01  -6.3315847682907700e-01  -6.1676458387385324e-01  -5.8857973753233617e-01  -5.2889167969616646e-01  -4.5332366797168011e-01  -3.9339443361758536e-01  -3.5457088569112905e-01  -3.4024412915101521e-01  -3.5572003385983558e-01  -3.9659840870949270e-01  -4.7319158515485099e-01  -5.8877645160846048e-01  -4.5194489026535201e-01  2.8784623304621389e-02  4.2901035789965070e-02  8.4886211533298714e-02  6.1423359642106138e-03  6.9548334561339381e-02  1.1603673849949668e-01  -5.2532555011476988e-02  -1.4103691970568154e-03  4.5108198153078954e-02  1.7893668416026125e-02  1.8701416157987854e-02  4.8122820573846238e-02  -2.5944213304990955e-03  8.5456620966208569e-02  8.1038384100444782e-02  -2.6029264998559165e-01  7.3375080289320785e-02  1.7462162971426370e-01  6.3765903267889015e-02  1.0200071817667611e-01  -4.0033065422570824e-01  1.0110204361528387e-01  1.0326948551287424e-01  2.0749110423268330e-01  6.6217295199748644e-02  4.0885007592198472e-02  5.8648836669674730e-03  2.9900056715699733e-02  5.5231115723133030e-02  1.2616996513063078e-02  3.8015580117019714e-02  -1.7612580170084022e-01  8.9662439171797378e-02  1.5405961370199567e-01  5.3059160345451617e-01  9.3043089910146260e-05  4.4916404033850005e-01  8.6168405589593447e-02  -2.6371620896788418e-03  1.4176611182020368e-01  1.9633874615606832e-02  -5.1276760918616306e-03  1.3965609080668573e-01  1.1398761393011064e-01  -1.2262761837121040e-02  -3.0549675931259745e-01  8.3474541155590054e-02  1.0952664533613564e-01  4.1240913204520037e-02  2.2135485100735250e-04  1.0735812110022228e-01  5.6076132829334817e-02  1.3484498017952708e-02  -4.8208881198026127e-01  1.1481663910961885e-01  7.5462417729353637e-02  8.4062897007352547e-02  2.5990927737019415e-02  2.5727736792075938e-03  2.6475526817060346e-01  6.9023916551411088e-02  -2.8037721970435698e-04  6.7607902961640667e-02  4.1032178076479672e-02  2.0218155167924762e-02  9.1883693413458012e-01  1.3140791843582256e-01  4.8454175591702453e-02  4.1856459168117296e-02  1.7393579561618407e-02  -8.9328721712776356e-04  4.3771243752675784e-02  1.2017771946030079e-02  8.2671630742415148e-01  -1.4086503789234415e-03  1.4303460634536483e-01  1.0373198936000243e-01  2.5566593238742778e-02  1.0435079561276210e-01  4.2801469391956962e-02  8.1544474677625545e-02  -6.6364256410868794e-02  2.1455817882084641e-01  8.1278993756175810e-02  -5.8121277239917210e-02  1.1572116765370040e-01  2.0534665451160537e-02  5.1531158592556872e-02  3.9832342600348760e-03  6.5691586546032521e-02  8.2739860102300444e-02  9.0418533585650718e-02  -5.4468349503944942e-03  7.7631366534055793e-02  5.6116668694922538e-02  -5.1675277585165569e-01  8.6286551308676449e-02  -8.9677451460334665e-02  -1.8669695418733009e-01  1.6591269963216090e-01  6.3793423749603756e-02  4.9261010276649420e-02  8.5953037562279511e-02  -2.0208372661401758e-01  2.2610450687736112e-02  8.9405249520187625e-03  1.8610393728403127e-01  -7.8429253013142608e-01  9.7183671364992050e-02  1.1366489204930326e-01  1.3284360452541044e-01  3.1243513036502059e-02  3.2646390659932635e-03  4.7108150610022284e-02  1.3719102014612866e-01  2.1383302894815140e-01  8.1554115594823867e-02  2.2698751168452858e-03  1.4451199666476754e-02  2.6836642080749185e-01  -1.2783363665983748e-02  1.7956702625064208e-01  4.8276851374678895e-02  3.2217889885932258e-02  2.8265102264206858e-02  2.3354999219407677e-02  9.1810239671740665e-02  1.3276586909430221e-01  6.0777771467118769e-02  -3.6522911743127204e-02  1.8513227125459854e-02  4.2226779205771746e-02  1.3505698584430761e-01  4.8611282351373652e-01  -1.7666885613348862e-01  -2.1814616751109723e-03  3.3198189608802608e-02  -2.1061455094991350e-03  4.0336555545726849e-01  4.3999509101828906e-02  -3.4478323243955603e-04  7.5364229730797566e-02  1.0735713834846095e-01  6.1727383118008905e-02  1.8236662347318108e-01  6.1263198468156602e-02  9.0233611250229648e-03  1.1560726780143003e-02  3.9024020206991701e-02  7.4451885571595572e-02  4.1791588748420538e-01  3.1835408110549919e-02  4.4787649255338284e-02  6.2122174115893216e-03  4.2552208298812816e-02  8.1783997645493382e-03  8.9948310763748401e-02  -5.9419881959295706e-02  -2.9502991970575460e-03  6.5210912398862619e-01  -4.2314100051030018e-01  -4.1016445078518385e-03  3.8777077064228581e-02  5.2411720362866371e-02  3.9087445661210124e-01  4.7844606482445949e-02  9.5731441158623636e-03  3.1699442633786751e-01  7.8272106092903387e-02  9.1816521636559109e-02  -5.7035055027593713e-02  1.8646990938657115e-01  -2.8061695484032716e-04  1.4429998124655102e-02  4.6200021705846916e-02  7.1129611368900147e-01  5.6342523494414609e-01  1.7118273571607296e-02  1.2691135747549284e-03  6.7946015680036179e-02  -4.7665076713362109e-01  -4.9482733446141181e-02  4.0203995015460042e-02  -3.2789858998089234e-03  8.0687825940340588e-02  9.1186981331808400e-02  -1.8064152891424830e-03  -3.7843310202284713e-01  -3.6395706664528330e-04  1.9461053980382764e-02  2.3843108731439189e-02  7.9454888599274243e-02  2.6316307434808516e-02  1.1627450880644140e-01  1.1996588514480515e-03  4.8729915534730973e-02  -5.6421213980335816e-01  1.2727778428350703e-01  1.0241634633165020e-01  -5.7149172931018092e-03  2.1489693448061013e-02  1.5737429953485940e-01  1.0862063830850846e-01  2.0614132106207407e-03  3.3957200507351751e-02  9.6008540753246802e-02  1.2723407450857005e+00  4.1140867845691369e-02  7.5066947639922971e-02  8.8716376948826142e-02  8.9049678800119478e-02  8.4444723522652898e-01  2.0039619533936091e-02  1.2883450506670044e-01  1.3438292758305073e-01  -4.9404307938952325e-03  7.3610813334037033e-03  -8.9889342190274321e-04  1.0765089094665182e-02  5.6644496865752909e-02  8.9897373624323640e-01  8.0510259264485851e-02  -1.0923383626598392e-01  9.5857998998585880e-02  6.2932023991825140e-02  1.8129254452913204e-02  1.3097802272231546e-01  7.4356518451544312e-02  1.1952323566102670e-01  5.4317143149360474e-02  -1.9402361240718874e-03  1.8196939544380678e-02  1.6922188160760526e-01  6.9412700514824385e-02  4.8918288850330088e-02  1.6149115112327864e-02  1.0488031037037512e-01  7.0305705664319471e-02  -9.2720478774761833e-02  4.4732878180724099e-02  -4.0701729731766445e-01  9.2263626980837496e-02  1.6331770159260090e-02  4.6494101215089824e-02  -2.1692376855441389e-03  -1.0334401505072426e-03  8.1737927233751631e-02  1.9076149032330383e-01  -5.3233956528392634e-02  7.2462702946759577e-02  -3.7727161840457762e-01  5.3515178661769094e-02  2.4399522851075500e-01  8.3827672533359529e-02  -1.0540429250491571e-03  1.1141077880961932e-01  1.3491675404619574e-01  5.6022885388540312e-02  1.9798748020567392e-01  3.6607119184719379e-02  9.2551506556031185e-02  -2.6957048718955706e-01  1.3029625030510697e-01  3.2645220581852208e-02  4.4843758675757468e-02  8.9808357392876800e-05  -2.3224690976233783e-01  2.2154488871606575e-02  8.9420211509811214e-03 