<?xml version="1.0"?>
<VTKFile type="UnstructuredGrid"  version="0.1"  >
<UnstructuredGrid>
<Piece  NumberOfPoints="12123" NumberOfCells="23692">
<Points>
<DataArray  type="Float64"  NumberOfComponents="3"  format="ascii">0 0 0  0 0.41 0  2.2 0 0  2.2 0.41 0  0.2 0.15 0  0.2 0.25 0  0 0.4000000000000008 0  0 0.3900000000000259 0  0 0.3800000000000606 0  0 0.3700000000000953 0  0 0.3600000000001082 0  0 0.3500000000001241 0  0 0.3400000000001558 0  0 0.3300000000001905 0  0 0.3200000000002133 0  0 0.3100000000002381 0  0 0.3000000000002728 0  0 0.2900000000003075 0  0 0.2800000000003204 0  0 0.2700000000003551 0  0 0.2600000000003897 0  0 0.2500000000004243 0  0 0.2400000000004419 0  0 0.2300000000004503 0  0 0.2200000000004849 0  0 0.2100000000005195 0  0 0.2000000000005203 0  0 0.1900000000004874 0  0 0.1800000000004544 0  0 0.1700000000004476 0  0 0.1600000000004316 0  0 0.1500000000003986 0  0 0.1400000000003795 0  0 0.1300000000003759 0  0 0.1200000000003428 0  0 0.1100000000003098 0  0 0.1000000000002768 0  0 0.09000000000024383 0  0 0.08000000000021068 0  0 0.07000000000020096 0  0 0.0600000000001879 0  0 0.05000000000015475 0  0 0.04000000000012166 0  0 0.03000000000008857 0  0 0.02000000000005536 0  0 0.01000000000002221 0  0.009999999999981288 0 0  0.01999999999996251 0 0  0.02999999999994353 0 0  0.0399999999999241 0 0  0.04999999999990434 0 0  0.05999999999988457 0 0  0.06999999999986481 0 0  0.07999999999984503 0 0  0.08999999999982462 0 0  0.09999999999980327 0 0  0.1099999999997819 0 0  0.1199999999997606 0 0  0.1299999999997423 0 0  0.1399999999997245 0 0  0.1499999999997079 0 0  0.1599999999996929 0 0  0.1699999999996795 0 0  0.179999999999666 0 0  0.1899999999996523 0 0  0.1999999999996356 0 0  0.209999999999619 0 0  0.2199999999996025 0 0  0.2299999999995879 0 0  0.2399999999995744 0 0  0.249999999999561 0 0  0.2599999999995468 0 0  0.2699999999995302 0 0  0.2799999999995105 0 0  0.2899999999994876 0 0  0.2999999999994596 0 0  0.3099999999994304 0 0  0.3199999999994012 0 0  0.3299999999993699 0 0  0.3399999999993343 0 0  0.3499999999992988 0 0  0.3599999999992632 0 0  0.3699999999992334 0 0  0.3799999999992042 0 0  0.3899999999991749 0 0  0.3999999999991457 0 0  0.4099999999991165 0 0  0.4199999999990872 0 0  0.429999999999058 0 0  0.4399999999990288 0 0  0.4499999999989995 0 0  0.4599999999989703 0 0  0.4699999999989373 0 0  0.4799999999989018 0 0  0.4899999999988663 0 0  0.4999999999988318 0 0  0.5099999999988025 0 0  0.5199999999987733 0 0  0.529999999998744 0 0  0.5399999999987057 0 0  0.5499999999986639 0 0  0.559999999998622 0 0  0.5699999999985838 0 0  0.5799999999985546 0 0  0.5899999999985253 0 0  0.5999999999984962 0 0  0.6099999999984668 0 0  0.6199999999984376 0 0  0.6299999999984084 0 0  0.6399999999983792 0 0  0.6499999999983499 0 0  0.6599999999983207 0 0  0.6699999999982915 0 0  0.6799999999982622 0 0  0.6899999999982329 0 0  0.6999999999982038 0 0  0.7099999999981744 0 0  0.7199999999981452 0 0  0.7299999999981162 0 0  0.7399999999980867 0 0  0.7499999999980577 0 0  0.7599999999980284 0 0  0.769999999997999 0 0  0.7799999999979699 0 0  0.7899999999979407 0 0  0.7999999999979114 0 0  0.8099999999978793 0 0  0.8199999999978375 0 0  0.8299999999977956 0 0  0.8399999999977538 0 0  0.8499999999977218 0 0  0.8599999999976925 0 0  0.8699999999976633 0 0  0.8799999999976341 0 0  0.8899999999976047 0 0  0.8999999999975756 0 0  0.9099999999975463 0 0  0.9199999999975172 0 0  0.9299999999974878 0 0  0.9399999999974586 0 0  0.9499999999974295 0 0  0.9599999999974002 0 0  0.969999999997371 0 0  0.9799999999973418 0 0  0.9899999999973124 0 0  0.9999999999972872 0 0  1.009999999997271 0 0  1.019999999997246 0 0  1.029999999997217 0 0  1.039999999997188 0 0  1.049999999997163 0 0  1.059999999997159 0 0  1.069999999997144 0 0  1.079999999997114 0 0  1.089999999997085 0 0  1.099999999997056 0 0  1.109999999997077 0 0  1.119999999997098 0 0  1.12999999999712 0 0  1.139999999997141 0 0  1.149999999997162 0 0  1.159999999997205 0 0  1.169999999997248 0 0  1.179999999997269 0 0  1.18999999999729 0 0  1.199999999997312 0 0  1.209999999997333 0 0  1.219999999997354 0 0  1.229999999997375 0 0  1.239999999997403 0 0  1.249999999997449 0 0  1.259999999997482 0 0  1.269999999997503 0 0  1.279999999997525 0 0  1.289999999997546 0 0  1.299999999997567 0 0  1.309999999997589 0 0  1.31999999999761 0 0  1.329999999997648 0 0  1.339999999997694 0 0  1.349999999997717 0 0  1.359999999997738 0 0  1.369999999997759 0 0  1.379999999997781 0 0  1.389999999997802 0 0  1.399999999997823 0 0  1.409999999997846 0 0  1.419999999997893 0 0  1.42999999999793 0 0  1.439999999997952 0 0  1.449999999997973 0 0  1.459999999997994 0 0  1.469999999998015 0 0  1.479999999998037 0 0  1.489999999998058 0 0  1.499999999998091 0 0  1.509999999998137 0 0  1.519999999998165 0 0  1.529999999998186 0 0  1.539999999998207 0 0  1.549999999998229 0 0  1.55999999999825 0 0  1.569999999998271 0 0  1.579999999998293 0 0  1.589999999998336 0 0  1.599999999998378 0 0  1.6099999999984 0 0  1.619999999998421 0 0  1.629999999998442 0 0  1.639999999998464 0 0  1.649999999998485 0 0  1.659999999998506 0 0  1.669999999998528 0 0  1.679999999998549 0 0  1.68999999999857 0 0  1.699999999998592 0 0  1.709999999998634 0 0  1.719999999998677 0 0  1.729999999998699 0 0  1.73999999999872 0 0  1.749999999998741 0 0  1.759999999998762 0 0  1.769999999998784 0 0  1.779999999998805 0 0  1.789999999998833 0 0  1.799999999998879 0 0  1.809999999998912 0 0  1.819999999998933 0 0  1.829999999998954 0 0  1.839999999998976 0 0  1.849999999998997 0 0  1.859999999999018 0 0  1.86999999999904 0 0  1.879999999999078 0 0  1.889999999999124 0 0  1.899999999999147 0 0  1.909999999999168 0 0  1.919999999999189 0 0  1.929999999999211 0 0  1.939999999999232 0 0  1.949999999999253 0 0  1.959999999999276 0 0  1.969999999999323 0 0  1.97999999999936 0 0  1.989999999999381 0 0  1.999999999999387 0 0  2.009999999999383 0 0  2.019999999999379 0 0  2.029999999999375 0 0  2.039999999999371 0 0  2.049999999999391 0 0  2.059999999999437 0 0  2.069999999999521 0 0  2.079999999999617 0 0  2.089999999999663 0 0  2.099999999999694 0 0  2.109999999999689 0 0  2.119999999999686 0 0  2.129999999999681 0 0  2.139999999999722 0 0  2.149999999999776 0 0  2.159999999999873 0 0  2.169999999999948 0 0  2.179999999999994 0 0  2.190000000000004 0 0  2.2 0.009999999999981952 0  2.2 0.01999999999996097 0  2.2 0.02999999999994221 0  2.2 0.03999999999992531 0  2.2 0.04999999999991126 0  2.2 0.05999999999988534 0  2.2 0.06999999999985251 0  2.2 0.07999999999982024 0  2.2 0.08999999999980195 0  2.2 0.0999999999997695 0  2.2 0.1099999999997346 0  2.2 0.1199999999997104 0  2.2 0.1299999999996865 0  2.2 0.1399999999996516 0  2.2 0.1499999999996167 0  2.2 0.1599999999995818 0  2.2 0.169999999999564 0  2.2 0.1799999999995553 0  2.2 0.1899999999995205 0  2.2 0.1999999999994856 0  2.2 0.2099999999994845 0  2.2 0.2199999999995173 0  2.2 0.2299999999995501 0  2.2 0.2399999999995566 0  2.2 0.2499999999995723 0  2.2 0.259999999999605 0  2.2 0.2699999999996239 0  2.2 0.2799999999996273 0  2.2 0.2899999999996601 0  2.2 0.2999999999996928 0  2.2 0.3099999999997256 0  2.2 0.3199999999997584 0  2.2 0.3299999999997912 0  2.2 0.3399999999998008 0  2.2 0.3499999999998136 0  2.2 0.3599999999998464 0  2.2 0.3699999999998793 0  2.2 0.3799999999999122 0  2.2 0.3899999999999451 0  2.2 0.3999999999999779 0  2.190000000000005 0.41 0  2.180000000000009 0.41 0  2.170000000000015 0.41 0  2.160000000000019 0.41 0  2.150000000000024 0.41 0  2.140000000000029 0.41 0  2.130000000000033 0.41 0  2.120000000000038 0.41 0  2.110000000000043 0.41 0  2.100000000000048 0.41 0  2.090000000000087 0.41 0  2.080000000000142 0.41 0  2.070000000000197 0.41 0  2.06000000000024 0.41 0  2.050000000000245 0.41 0  2.040000000000249 0.41 0  2.030000000000254 0.41 0  2.020000000000259 0.41 0  2.010000000000264 0.41 0  2.000000000000268 0.41 0  1.990000000000273 0.41 0  1.980000000000278 0.41 0  1.970000000000283 0.41 0  1.960000000000287 0.41 0  1.950000000000292 0.41 0  1.940000000000302 0.41 0  1.930000000000332 0.41 0  1.920000000000362 0.41 0  1.910000000000392 0.41 0  1.900000000000422 0.41 0  1.890000000000452 0.41 0  1.880000000000482 0.41 0  1.870000000000503 0.41 0  1.860000000000508 0.41 0  1.850000000000529 0.41 0  1.840000000000559 0.41 0  1.830000000000588 0.41 0  1.820000000000618 0.41 0  1.810000000000648 0.41 0  1.800000000000678 0.41 0  1.790000000000708 0.41 0  1.780000000000719 0.41 0  1.770000000000725 0.41 0  1.760000000000755 0.41 0  1.750000000000785 0.41 0  1.740000000000815 0.41 0  1.730000000000845 0.41 0  1.720000000000875 0.41 0  1.710000000000905 0.41 0  1.700000000000931 0.41 0  1.690000000000936 0.41 0  1.680000000000951 0.41 0  1.670000000000981 0.41 0  1.660000000001048 0.41 0  1.650000000001128 0.41 0  1.640000000001208 0.41 0  1.630000000001275 0.41 0  1.620000000001305 0.41 0  1.610000000001321 0.41 0  1.600000000001325 0.41 0  1.590000000001351 0.41 0  1.580000000001384 0.41 0  1.57000000000144 0.41 0  1.560000000001495 0.41 0  1.55000000000155 0.41 0  1.540000000001588 0.41 0  1.530000000001618 0.41 0  1.520000000001623 0.41 0  1.510000000001634 0.41 0  1.500000000001664 0.41 0  1.490000000001708 0.41 0  1.480000000001763 0.41 0  1.470000000001818 0.41 0  1.460000000001871 0.41 0  1.450000000001901 0.41 0  1.440000000001922 0.41 0  1.430000000001926 0.41 0  1.420000000001947 0.41 0  1.410000000001977 0.41 0  1.400000000002031 0.41 0  1.390000000002086 0.41 0  1.380000000002141 0.41 0  1.370000000002184 0.41 0  1.360000000002214 0.41 0  1.350000000002224 0.41 0  1.340000000002231 0.41 0  1.33000000000226 0.41 0  1.320000000002299 0.41 0  1.310000000002354 0.41 0  1.300000000002394 0.41 0  1.290000000002424 0.41 0  1.280000000002431 0.41 0  1.270000000002435 0.41 0  1.26000000000244 0.41 0  1.250000000002457 0.41 0  1.240000000002487 0.41 0  1.230000000002536 0.41 0  1.22000000000259 0.41 0  1.21000000000262 0.41 0  1.200
[...]
<PointData  Scalars="p"> 
<DataArray  type="Float64"  Name="p"  format="ascii">4.4230602595588980e-01  4.6128413595273221e-01  0.0000000000000000e+00  0.0000000000000000e+00  -1.0538030681172876e+00  -8.8582085077873185e-01  4.6117504858151642e-01  4.6143621650197392e-01  4.6278330359152359e-01  4.6591167752896612e-01  4.7141927532092864e-01  4.7961364047567961e-01  4.9105627720620504e-01  5.0583137744591389e-01  5.2411388609868981e-01  5.4574189303723686e-01  5.7038605071810389e-01  5.9750829066077493e-01  6.2633536377351029e-01  6.5594079523453863e-01  6.8521645683238708e-01  7.1250041574687373e-01  7.3715648231987352e-01  7.5744906544469659e-01  7.7239905302153389e-01  7.8110218236167639e-01  7.8210729551181291e-01  7.7690646732917190e-01  7.6457322608768641e-01  7.4585162664718552e-01  7.2203674943314422e-01  6.9464070146603019e-01  6.6455383389682299e-01  6.3308019559602546e-01  6.0203575145542454e-01  5.7209543446338496e-01  5.4439515325332954e-01  5.1959092968472920e-01  4.9826541064378005e-01  4.8055524557899448e-01  4.6661018289544853e-01  4.5622572064450434e-01  4.4909511994217793e-01  4.4479405432340008e-01  4.4272944671048137e-01  4.4217762469679917e-01  4.4179141934545652e-01  4.4101407587897207e-01  4.3960753898310306e-01  4.3738982934545700e-01  4.3420011630632466e-01  4.2980878087535090e-01  4.2412499253853986e-01  4.1694131570912563e-01  4.0803832439571319e-01  3.9752696321344594e-01  3.8465237057840984e-01  3.7015996054959382e-01  3.5331613498380926e-01  3.3437803842264474e-01  3.1361532654542196e-01  2.9084151377534534e-01  2.6687899460444675e-01  2.4159980388267863e-01  2.1608011335574828e-01  1.9027985352708451e-01  1.6524309270119908e-01  1.4155776950477658e-01  1.1927822319286327e-01  9.9529579698139317e-02  8.2453827043403441e-02  6.8287125141354738e-02  5.7461647439608916e-02  4.9220266826972989e-02  4.4796491212626605e-02  4.3742667021029330e-02  4.5854062716737809e-02  4.9957133646529511e-02  5.7505681036526521e-02  6.5837524901262046e-02  7.7144926640559164e-02  8.9029910782180866e-02  1.0127933058091354e-01  1.1482757937025488e-01  1.2723189560645012e-01  1.3927609795285270e-01  1.5073036909604620e-01  1.6012260039199189e-01  1.6838681256036186e-01  1.7461210507115402e-01  1.7866622355083914e-01  1.8079326536720425e-01  1.8026441948356034e-01  1.7765555195013638e-01  1.7239960328360979e-01  1.6499663384565322e-01  1.5504347853138262e-01  1.4288073707536630e-01  1.2893463118854209e-01  1.1423683329981410e-01  9.8662722715282605e-02  8.2535294666498449e-02  6.8268159360400787e-02  5.4879502799270848e-02  4.4019947155634925e-02  3.5614250758671258e-02  3.0510993648051862e-02  2.8149718057871649e-02  2.9159855064659887e-02  3.2944854287090812e-02  3.9205088514581182e-02  4.7430277743368943e-02  5.7079899351753595e-02  6.7761984492682004e-02  7.8641176283207215e-02  8.9391225634121746e-02  9.9740933646820143e-02  1.0918409777720910e-01  1.1768878341575169e-01  1.2512601482171362e-01  1.3146448267959901e-01  1.3696798945274061e-01  1.4161523691055969e-01  1.4559082303002530e-01  1.4896464285211333e-01  1.5202063183686734e-01  1.5458401941532562e-01  1.5683927317579843e-01  1.5885520743800247e-01  1.6040949094260046e-01  1.6174562679965318e-01  1.6249815480789664e-01  1.6293482867599565e-01  1.6286517826481753e-01  1.6238606857581972e-01  1.6145952410071629e-01  1.6007435799542291e-01  1.5839951637527228e-01  1.5645368714221980e-01  1.5426686723019026e-01  1.5192503057529885e-01  1.4952544421133371e-01  1.4712959211294985e-01  1.4474760431351277e-01  1.4243812281575643e-01  1.4018069738833155e-01  1.3798447680438108e-01  1.3579527599824506e-01  1.3362480968114868e-01  1.3138530601692544e-01  1.2905685203130812e-01  1.2657903461058156e-01  1.2395130063118530e-01  1.2109455078571249e-01  1.1805320420190819e-01  1.1485617115855638e-01  1.1142693126802179e-01  1.0790817292242451e-01  1.0434784349194287e-01  1.0071519149112006e-01  9.7150885422574093e-02  9.3786958607190316e-02  9.0555281413809974e-02  8.7635395524946605e-02  8.5087452143472908e-02  8.2878225938672265e-02  8.1169337073214498e-02  7.9895904757284197e-02  7.9115429809255025e-02  7.8789311220581484e-02  7.8964587017507151e-02  7.9585533476454445e-02  8.0519391985681379e-02  8.1852685588805860e-02  8.3455245106619683e-02  8.5226962120298719e-02  8.7103722878645318e-02  8.9068498181559416e-02  9.1050061459416132e-02  9.2842774135043341e-02  9.4503817348285918e-02  9.6017641865377271e-02  9.7135563056939031e-02  9.8066377430601787e-02  9.8612209610605794e-02  9.8775677250239155e-02  9.8670725803330112e-02  9.8169615261749721e-02  9.7302395036684530e-02  9.6109764259581038e-02  9.4605803528394747e-02  9.2776219152032033e-02  9.0766024484968497e-02  8.8424944241637590e-02  8.5938783859935391e-02  8.3254652861114151e-02  8.0481455841025701e-02  7.7578954290238741e-02  7.4618651740678998e-02  7.1624456776486836e-02  6.8638688392359620e-02  6.5687198474731881e-02  6.2751594258033644e-02  5.9962943520881086e-02  5.7276509171522619e-02  5.4697886468103481e-02  5.2357095030047499e-02  5.0129852049962391e-02  4.8133220830069150e-02  4.6343386128077986e-02  4.4792947994710230e-02  4.3471758883760647e-02  4.2347121419430263e-02  4.1508983606133143e-02  4.0844619506592114e-02  4.0407138641136438e-02  4.0185197772225761e-02  4.0109122545531936e-02  4.0204931902261577e-02  4.0405713713668058e-02  4.0700969382591753e-02  4.1086607213213944e-02  4.1491621849789488e-02  4.1927891253079677e-02  4.2313488123915596e-02  4.2682033197525102e-02  4.2929881400638518e-02  4.3133770071336196e-02  4.3201937666769330e-02  4.3147348035367565e-02  4.2924252357549271e-02  4.2568820474215313e-02  4.2047596193508882e-02  4.1376059074570627e-02  4.0550936544338723e-02  3.9552865245405897e-02  3.8440253031619548e-02  3.7168838244365690e-02  3.5785908355205856e-02  3.4299014183874724e-02  3.2713688798871952e-02  3.1066505951941641e-02  2.9352637164917462e-02  2.7610773344835877e-02  2.5833769500097373e-02  2.4054624634652317e-02  2.2302290169698414e-02  2.0558582470128772e-02  1.8866842235709884e-02  1.7231307384421871e-02  1.5658309176860303e-02  1.4179774952924728e-02  1.2767075032082853e-02  1.1458817677146722e-02  1.0259371256321891e-02  9.1532480300295840e-03  8.1649772440747538e-03  7.2774913104510907e-03  6.4881216737316645e-03  5.8090021601629738e-03  5.2253579263526716e-03  4.7222165433134138e-03  4.2974103287844231e-03  3.9420957480722947e-03  3.3774905409847157e-03  0.0000000000000000e+00  0.0000000000000000e+00  0.0000000000000000e+00  0.0000000000000000e+00  0.0000000000000000e+00  0.0000000000000000e+00  0.0000000000000000e+00  0.0000000000000000e+00  0.0000000000000000e+00  0.0000000000000000e+00  0.0000000000000000e+00  0.0000000000000000e+00  0.0000000000000000e+00  0.0000000000000000e+00  0.0000000000000000e+00  0.0000000000000000e+00  0.0000000000000000e+00  0.0000000000000000e+00  0.0000000000000000e+00  0.0000000000000000e+00  0.0000000000000000e+00  0.0000000000000000e+00  0.0000000000000000e+00  0.0000000000000000e+00  0.0000000000000000e+00  0.0000000000000000e+00  0.0000000000000000e+00  0.0000000000000000e+00  0.0000000000000000e+00  0.0000000000000000e+00  0.0000000000000000e+00  0.0000000000000000e+00  0.0000000000000000e+00  0.0000000000000000e+00  0.0000000000000000e+00  0.0000000000000000e+00  0.0000000000000000e+00  0.0000000000000000e+00  0.0000000000000000e+00  0.0000000000000000e+00  6.3225609938186425e-03  7.5470193816758527e-03  8.8269868124213891e-03  1.0154942517702398e-02  1.1380956402666264e-02  1.2549442172109640e-02  1.3645778421158139e-02  1.4657753249773711e-02  1.5599993214216361e-02  1.6429393959238460e-02  1.7188639683369322e-02  1.7845669421301658e-02  1.8413714767477839e-02  1.8911973642549745e-02  1.9311497924831604e-02  1.9662744064327768e-02  1.9928758873926380e-02  2.0170119688884096e-02  2.0357632958339263e-02  2.0539174923969197e-02  2.0703207863961071e-02  2.0883672662649864e-02  2.1081843864232095e-02  2.1336565060055476e-02  2.1627676974445093e-02  2.2010285674337181e-02  2.2479077132157341e-02  2.3025459555714656e-02  2.3703066112250818e-02  2.4499538520499839e-02  2.5415229910391454e-02  2.6447815490523007e-02  2.7638931919424820e-02  2.8936690958525343e-02  3.0384644091294859e-02  3.1935521483827063e-02  3.3641514839132323e-02  3.5423710977937110e-02  3.7337524529601554e-02  3.9320198755235833e-02  4.1364345358311044e-02  4.3500004395970140e-02  4.5649692977784678e-02  4.7825402242443991e-02  4.9972223057802030e-02  5.2128858191325463e-02  5.4232938133303286e-02  5.6267629204365323e-02  5.8215064088123783e-02  6.0032865953833114e-02  6.1718685309553427e-02  6.3260173985539292e-02  6.4626817464579406e-02  6.5794648560335248e-02  6.6813308210632499e-02  6.7538313013593282e-02  6.8103634182820658e-02  6.8451274856819760e-02  6.8578794276555291e-02  6.8527901244142139e-02  6.8280938627718418e-02  6.7907897511249385e-02  6.7370579743691553e-02  6.6714771480683846e-02  6.6020082808331881e-02  6.5304110016501882e-02  6.4578033657275144e-02  6.3912791840250477e-02  6.3299690486611590e-02  6.2834534051637567e-02  6.2539003193653742e-02  6.2414762179017230e-02  6.2502414926609601e-02  6.2837643472952967e-02  6.3420263680992045e-02  6.4248835355399769e-02  6.5357584822598583e-02  6.6735393526728845e-02  6.8344539408234040e-02  7.0199401336534434e-02  7.2284839833755304e-02  7.4547532564583421e-02  7.7004026228426808e-02  7.9612187367538417e-02  8.2330970560001993e-02  8.5171048658815224e-02  8.8055974844901852e-02  9.0971698280461824e-02  9.3952626044130752e-02  9.6917745221046916e-02  9.9806100101937884e-02  1.0266248253759143e-01  1.0546805359476605e-01  1.0812883263670493e-01  1.1065024004412825e-01  1.1305279039534277e-01  1.1525580470856001e-01  1.1724680802416612e-01  1.1897793475519650e-01  1.2051824868194433e-01  1.2172234287506238e-01  1.2266198018505493e-01  1.2328115077680227e-01  1.2357599321944693e-01  1.2359863783768749e-01  1.2327584100378851e-01  1.2268718862869142e-01  1.2193781589311485e-01  1.2095286414509671e-01  1.1985294745645782e-01  1.1864985673328289e-01  1.1745909670753377e-01  1.1636538408106471e-01  1.1540373657551325e-01  1.1461040738920625e-01  1.1406698247201423e-01  1.1382920270711973e-01  1.1384288043601365e-01  1.1411813905406387e-01  1.1466225553347208e-01  1.1536484556367087e-01  1.1617228495340445e-01  1.1696953957221609e-01  1.1768584118860242e-01  1.1806596186564175e-01  1.1816409162482097e-01  1.1778456293922490e-01  1.1688081986470072e-01  1.1537915096572300e-01  1.1346836180261623e-01  1.1096578539683299e-01  1.0824051763785765e-01  1.0540725690641313e-01  1.0279072202627787e-01  1.0043039399922045e-01  9.9262727402037565e-02  9.8928657786875721e-02  1.0010727566546186e-01  1.0292620987702034e-01  1.0745780429222897e-01  1.1401923389080744e-01  1.2201165401233807e-01  1.3220912523770770e-01  1.4337155558360459e-01  1.5562971955906105e-01  1.6901643799215130e-01  1.8220271099205171e-01  1.9515026237369615e-01  2.0778679081467202e-01  2.1899632143736950e-01  2.2890924305797009e-01  2.3690362028430306e-01  2.4317610471246445e-01  2.4692618564739352e-01  2.4835258068051844e-01  2.4739076120314060e-01  2.4392714546997943e-01  2.3809885991264129e-01  2.2947316023173753e-01  2.1900865735021380e-01  2.0635796004433637e-01  1.9154816302575772e-01  1.7498397434530469e-01  1.5717881920304705e-01  1.3838199794315212e-01  1.1857322742756665e-01  9.9103199644833329e-02  7.9712394687561944e-02  6.1099687354303191e-02  4.3627266259077931e-02  2.7751821747281115e-02  1.4009720205322715e-02  2.3959779645252406e-03  -6.8953067461554277e-03  -1.3679262628716878e-02  -1.8218963054407816e-02  -2.0442904196880642e-02  -2.0917115003831227e-02  -1.9038502520073122e-02  -1.6035877248300724e-02  -1.1421824469420477e-02  -5.6086379795232530e-03  1.3428079733043803e-03  9.2464665481971544e-03  1.8423920217867366e-02  2.8445557913581370e-02  3.9723733788928448e-02  5.2330060114523055e-02  6.6120840638502307e-02  8.1337230467785668e-02  9.7803267067220173e-02  1.1553922757768896e-01  1.3474878839370683e-01  1.5478979033382548e-01  1.7634417285836526e-01  1.9822379859979453e-01  2.2124422937752783e-01  2.4405699856061619e-01  2.6715523710687450e-01  2.8963635710260355e-01  3.1156929346010237e-01  3.3226983557872680e-01  3.5159530604445410e-01  3.6954203275033126e-01  3.8525212941166115e-01  3.9950681430665558e-01  4.1182903969918522e-01  4.2214048148516686e-01  4.3079358898297054e-01  4.3790571664710981e-01  4.4373317957350211e-01  4.4826586274901747e-01  4.5191048069684503e-01  4.5453441609902423e-01  4.5668398067652644e-01  4.5819004005185632e-01  4.5933047243484820e-01  4.6013700961339404e-01  4.6070615584324476e-01  -1.0080196016601382e+00  -9.5524457298583232e-01  -6.5033026163332031e-01  -1.1314340060380332e-01  6.4107621077063026e-01  1.2969329221632964e+00  1.7876383424103233e+00  1.9701184539911347e+00  1.7891657995081416e+00  1.3003567506388352e+00  6.4893900421647710e-01  -9.3019080787641206e-02  -6.8890468805865468e-01  -1.0019855343300041e+00  -1.1389189585248374e+00  -9.1460202886308062e-01  -7.9193797811251798e-01  -7.0598475278686845e-01  -6.5292961353986145e-01  -5.9853845143767526e-01  -5.2494743780170761e-01  -4.6123449270438460e-01  -4.4098779764523671e-01  -4.3735783139899392e-01  -4.2262996450933549e-01  -3.9479097259472795e-01  -3.9103507082589867e-01  -4.3727825047696262e-01  -5.3522542542717266e-01  -6.7810977678778905e-01  4.8716048329563978e-02  5.1890847417774028e-02  8.0381996951697940e-02  7.0289235291486840e-02  2.9531965511296131e-02  8.9446888832377072e-02  1.0679421803952423e-01  1.3316200065403963e-01  1.4653685096690980e-02  6.0562946707452825e-02  4.2017233408006602e-02  3.9254326327470980e-02  6.9972274530421055e-02  1.9554303316889041e-02  9.9858386200303156e-02  7.2312294108145631e-02  -4.7386652792400957e-01  2.2062018433205119e-01  1.6057522256262063e-01  1.1313081564939666e-01  1.1445790366195510e-01  1.2674327255710069e-01  1.1503209475538746e-01  1.7876687560456708e-01  5.0245482537146759e-02  1.0153790005584448e-01  9.9918528779622207e-02  4.3993496513924778e-02  7.0740438549799389e-02  6.2404566353970257e-02  2.4274098074278262e-02  3.8696801727711228e-02  2.8484116410172542e-02  1.2789118609018965e-01  9.2643295470929421e-02  5.1115600112960469e-01  3.0643166955414334e-02  4.9634167384342159e-01  7.9062321875656275e-02  1.2037839439457855e-02  1.7412226282577734e-01  6.0373809016850695e-02  1.6758484533636219e-02  1.4831935668660245e-01  3.3361685872302094e-02  -6.3683848835823481e-02  -1.5528734477004302e-01  1.0761241736229854e-01  2.4933519541814766e-01  7.5337193462403168e-02  5.7047980826940787e-03  1.4669462216293011e-01  9.6958561727604947e-02  3.8830330149769714e-02  -7.9525172178880155e-01  -4.1868764888119719e-02  6.6856115317838902e-02  1.0429058287082438e-01  1.2726860370440407e-01  2.0210673258708501e-02  2.4804507420685576e-01  8.3130018921934334e-02  2.2059589344452159e-02  8.1450814712014791e-02  6.2374806854577726e-02  4.3946745546396521e-02  9.1186122557181915e-01  1.8023904364874793e-01  5.3899135239325213e-02  6.5107529669427747e-02  3.5929693581698147e-02  1.6759013582502588e-02  8.5025824336322400e-02  4.3351388784853929e-02  8.5916204852508360e-01  3.9029980925951511e-03  2.0025865867466142e-01  8.4654884116218368e-02  3.8307530450544969e-02  1.2500615630134795e-01  4.9841331038125172e-02  1.1385099041826047e-01  9.1554159296755991e-02  1.4737336931544229e-01  1.0126090844558107e-01  -5.3275106033390418e-02  1.2895330476704167e-01  7.0719179861785025e-02  5.9861288651294919e-02  2.0591983258826323e-02  8.0766102329001999e-02  8.8200543320114719e-02  7.4303821945581230e-02  1.9888216460428678e-02  1.2397014665383950e-01  9.0408403831940806e-02  -6.9879301105044389e-01  6.4372408591553784e-02  1.3059974970614679e-01  2.1626945732725697e-01  8.0185756436150141e-02  1.1316965615857286e-01  2.0580509200388636e-01  1.0379368307845432e-01  -4.5878374463920285e-01  5.8671615492966241e-02  -2.9111428214883144e-02  1.6868748667878805e-01  -5.0456201719267491e-01  1.2909264163025025e-01  1.1366594491692081e-01  1.2774073275625825e-01  1.1270419844226744e-01  3.6979522440387970e-02  5.9000844358758284e-02  1.6398776796008824e-01  6.3507830035766141e-02  8.7428148064371533e-02  3.9019266879164939e-02  3.1487182099159197e-02  3.3329302593850724e-02  1.9866544514247514e-01  2.3884598734180856e-01  1.1743241730049929e-01  1.2965930440009252e-01  3.8227772476233671e-02  6.8015525035080460e-02  1.4715906749466984e-01  3.2783177968125597e-02  6.2428233448061851e-02  3.5132250114801249e-02  4.9148705514515764e-02  1.0136095766915498e-01  1.6799146891165026e-01  4.6826103617336073e-01  2.2430905941233720e-02  1.1466607072632409e-02  6.5361694405167411e-02  1.6277018110573239e-02  4.5204923041008521e-01  8.6473236261423864e-02  2.4880522193201821e-02  8.4727396729830748e-02  8.8963171700168472e-02  1.6706962949995044e-01  1.6841485932632688e-01  6.9925331534688273e-02  2.2694735153510812e-02  4.3245622409232479e-02  9.1123623274250221e-02  9.8403748252989462e-02  4.0539227095545405e-01  6.9406645067684597e-02  6.9394255620001316e-02  4.3645885040915995e-02  4.3860359509608114e-02  4.0559259548307074e-02  1.1409492942306511e-01  -9.3156212311457529e-02  1.2451300597216376e-02  6.3634540794381811e-01  -1.7602746956185195e-01  1.7764423829478550e-02  6.6891901921034336e-02  6.7253192872175280e-02  3.5333783154295390e-01  6.9011130381659500e-02  2.4127588455387310e-02  3.6166162873833685e-01  1.0174614571058364e-01  1.2561182062655921e-01  -7.9699857043964511e-04  9.6077844436713702e-02  2.5581250053543388e-02  2.8290172427626201e-02  1.0129921045346311e-01  7.6369787052330862e-01  6.0761143110859073e-01  4.1183383762538071e-02  4.6830108991790772e-03  9.9534687571057934e-02  -2.4057311335769052e-01  -2.6053063189905381e-02  9.5599330524209228e-02  4.3250840071065496e-03  6.9374263576629666e-02  7.9418072474005938e-02  2.0377700716253614e-02  -3.2748521738231767e-01  1.0621140194764787e-02  5.3406066063963573e-02  6.7381627416759196e-02  1.1477810002788937e-01  3.6445118301764556e-02  9.4491396473792788e-02  1.2238240181125422e-03  5.7738547189210211e-02  4.9132721132694013e-02  1.3865424142773763e-01  2.2282873077745454e-02  1.7780816415116651e-02  1.8073490963562791e-01  2.2148953351576714e-01  9.8752372328362509e-02  2.9004650511759576e-02  3.9354351708362954e-02  1.1941323237061156e-01  1.2867211546183330e+00  7.0897267424191154e-02  9.4279474720345202e-02  6.8458104635378172e-02  6.5099368260249965e-02  8.5710744144626572e-01  6.0768731403616334e-02  1.6515851314966845e-01  1.3959602241013325e-01  1.9585346815863397e-01  2.0699026998358721e-02  1.0812089652874250e-02  3.2692200197608670e-02  6.2912298424331867e-02  8.6571462425391943e-01  1.1119142784874253e-01  -2.6015855752947287e-01  1.1288334415136181e-01  7.3160056708625631e-02  4.1130513042588787e-02  2.9946038841175141e-02  1.0385185732093719e-01  2.3003882821155372e-01  2.4499923146331723e-01  1.0129295813609884e-02  4.4360531264959105e-02  2.2907623082586603e-01  1.3071213541070806e-01  1.5435077999330915e-01  3.1104797804252179e-02  1.1461023871183418e-01  9.4873221596818214e-02  2.1339972562033401e-02  6.3755810537614435e-02  -8.4676910334152339e-02  1.5097661118137778e-01  4.0447715884308413e-02  6.2832638834325841e-02  2.0043651920944466e-02  1.1054115872479562e-02  1.0862785001471489e-01  1.2756669287750269e-01  1.7640273049308652e-01  8.4594315655312224e-02  -5.3253137379390392e-01  9.7142277588447526e-02  1.1126408876879360e-01  1.2062271353622422e-01  1.9522388139545523e-02  1.6870083837072217e-01  8.9879992534223949e-02  1.0844928932842082e-01  -7.6963735408913173e-02  5.4484074322526749e-02  1.3057680081786144e-01  -3.1948105879189526e-01  9.2119946668150071e-02  1.1381723957664071e-01  6.0757799919988892e-02  1.9994051679341537e-02  -8.4890957195809724e-01  3.8212451793154502e-02  1.0778506750895744e-01  4.3168575325326752e-02  -2.5195466160877606e-02  8.9540774100660525e-02  1.23317812756789